           0.1	(   1.146642e+00   0.000000e+00  2.505439e-05) (   5.733208e+00   0.000000e+00  3.306137e-06) (   1.146642e+01   0.000000e+00  3.612056e-07) (   1.719963e+01   0.000000e+00  3.984488e-08) (   2.293283e+01   0.000000e+00  4.402679e-09) 
0.2	(   1.146642e+00   0.000000e+00  1.745652e-04) (   5.733208e+00   0.000000e+00  2.265021e-05) (   1.146642e+01   0.000000e+00  2.501766e-06) (   1.719963e+01   0.000000e+00  2.794659e-07) (   2.293283e+01   0.000000e+00  3.127238e-08) 
0.3	(   1.146642e+00   0.000000e+00  5.109021e-04) (   5.733208e+00   0.000000e+00  6.559781e-05) (   1.146642e+01   0.000000e+00  7.362984e-06) (   1.719963e+01   0.000000e+00  8.369243e-07) (   2.293283e+01   0.000000e+00  9.525878e-08) 
0.4	(   1.146642e+00   0.000000e+00  1.069561e-03) (   5.733208e+00   0.000000e+00  1.368948e-04) (   1.146642e+01   0.000000e+00  1.570012e-05) (   1.719963e+01   0.000000e+00  1.824561e-06) (   2.293283e+01   0.000000e+00  2.121243e-07) 
0.5	(   1.146642e+00   0.000000e+00  1.877643e-03) (   5.733208e+00   0.000000e+00  2.416588e-04) (   1.146642e+01   0.000000e+00  2.846133e-05) (   1.719963e+01   0.000000e+00  3.395388e-06) (   2.293283e+01   0.000000e+00  4.045502e-07) 
0.6	(   1.146642e+00   0.000000e+00  2.945811e-03) (   5.733208e+00   0.000000e+00  3.848703e-04) (   1.146642e+01   0.000000e+00  4.676184e-05) (   1.719963e+01   0.000000e+00  5.745824e-06) (   2.293283e+01   0.000000e+00  7.033362e-07) 
0.7	(   1.146642e+00   0.000000e+00  4.253059e-03) (   5.733208e+00   0.000000e+00  5.699634e-04) (   1.146642e+01   0.000000e+00  7.175812e-05) (   1.719963e+01   0.000000e+00  9.108075e-06) (   2.293283e+01   0.000000e+00  1.147666e-06) 
0.8	(   1.146642e+00   0.000000e+00  5.736468e-03) (   5.733208e+00   0.000000e+00  7.980662e-04) (   1.146642e+01   0.000000e+00  1.045836e-04) (   1.719963e+01   0.000000e+00  1.374943e-05) (   2.293283e+01   0.000000e+00  1.786330e-06) 
0.9	(   1.146642e+00   0.000000e+00  7.284017e-03) (   5.733208e+00   0.000000e+00  1.067563e-03) (   1.146642e+01   0.000000e+00  1.463128e-04) (   1.719963e+01   0.000000e+00  1.997515e-05) (   2.293283e+01   0.000000e+00  2.679626e-06) 
1	(   1.146642e+00   0.000000e+00  8.737782e-03) (   5.733208e+00   0.000000e+00  1.374578e-03) (   1.146642e+01   0.000000e+00  1.979925e-04) (   1.719963e+01   0.000000e+00  2.813649e-05) (   2.293283e+01   0.000000e+00  3.901779e-06) 
1.1	(   1.146642e+00   0.000000e+00  9.906685e-03) (   5.733208e+00   0.000000e+00  1.714315e-03) (   1.146642e+01   0.000000e+00  2.607763e-04) (   1.719963e+01   0.000000e+00  3.865206e-05) (   2.293283e+01   0.000000e+00  5.545367e-06) 
1.2	(   1.146642e+00   0.000000e+00  1.053902e-02) (   5.733208e+00   0.000000e+00  2.076155e-03) (   1.146642e+01   0.000000e+00  3.353578e-04) (   1.719963e+01   0.000000e+00  5.195167e-05) (   2.293283e+01   0.000000e+00  7.717447e-06) 
1.3	(   1.146642e+00   0.000000e+00  1.043106e-02) (   5.733208e+00   0.000000e+00  2.446919e-03) (   1.146642e+01   0.000000e+00  4.222480e-04) (   1.719963e+01   0.000000e+00  6.850881e-05) (   2.293283e+01   0.000000e+00  1.054534e-05) 
1.4	(   1.146642e+00   0.000000e+00  9.319967e-03) (   5.733208e+00   0.000000e+00  2.813243e-03) (   1.146642e+01   0.000000e+00  5.219608e-04) (   1.719963e+01   0.000000e+00  8.886265e-05) (   2.293283e+01   0.000000e+00  1.418157e-05) 
1.5	(   1.146642e+00   0.000000e+00  7.051370e-03) (   5.733208e+00   0.000000e+00  3.158086e-03) (   1.146642e+01   0.000000e+00  6.345651e-04) (   1.719963e+01   0.000000e+00  1.135700e-04) (   2.293283e+01   0.000000e+00  1.880156e-05) 
1.6	(   1.146642e+00   0.000000e+00  3.534734e-03) (   5.733208e+00   0.000000e+00  3.452960e-03) (   1.146642e+01   0.000000e+00  7.587202e-04) (   1.719963e+01   0.000000e+00  1.430915e-04) (   2.293283e+01   0.000000e+00  2.459308e-05) 
1.7	(   1.146642e+00   0.000000e+00 -1.132416e-03) (   5.733208e+00   0.000000e+00  3.668582e-03) (   1.146642e+01   0.000000e+00  8.927759e-04) (   1.719963e+01   0.000000e+00  1.779013e-04) (   2.293283e+01   0.000000e+00  3.177080e-05) 
1.8	(   1.146642e+00   0.000000e+00 -6.649363e-03) (   5.733208e+00   0.000000e+00  3.777628e-03) (   1.146642e+01   0.000000e+00  1.034674e-03) (   1.719963e+01   0.000000e+00  2.184606e-04) (   2.293283e+01   0.000000e+00  4.057518e-05) 
1.9	(   1.146642e+00   0.000000e+00 -1.259356e-02) (   5.733208e+00   0.000000e+00  3.751526e-03) (   1.146642e+01   0.000000e+00  1.181458e-03) (   1.719963e+01   0.000000e+00  2.651482e-04) (   2.293283e+01   0.000000e+00  5.126697e-05) 
2	(   1.146642e+00   0.000000e+00 -1.847339e-02) (   5.733208e+00   0.000000e+00  3.558878e-03) (   1.146642e+01   0.000000e+00  1.329857e-03) (   1.719963e+01   0.000000e+00  3.182909e-04) (   2.293283e+01   0.000000e+00  6.412934e-05) 
2.1	(   1.146642e+00   0.000000e+00 -2.385122e-02) (   5.733208e+00   0.000000e+00  3.175343e-03) (   1.146642e+01   0.000000e+00  1.475628e-03) (   1.719963e+01   0.000000e+00  3.780745e-04) (   2.293283e+01   0.000000e+00  7.945967e-05) 
2.2	(   1.146642e+00   0.000000e+00 -2.827830e-02) (   5.733208e+00   0.000000e+00  2.574250e-03) (   1.146642e+01   0.000000e+00  1.613008e-03) (   1.719963e+01   0.000000e+00  4.444480e-04) (   2.293283e+01   0.000000e+00  9.755718e-05) 
2.3	(   1.146642e+00   0.000000e+00 -3.134968e-02) (   5.733208e+00   0.000000e+00  1.734244e-03) (   1.146642e+01   0.000000e+00  1.735239e-03) (   1.719963e+01   0.000000e+00  5.171380e-04) (   2.293283e+01   0.000000e+00  1.187213e-04) 
2.4	(   1.146642e+00   0.000000e+00 -3.272000e-02) (   5.733208e+00   0.000000e+00  6.417116e-04) (   1.146642e+01   0.000000e+00  1.834420e-03) (   1.719963e+01   0.000000e+00  5.956045e-04) (   2.293283e+01   0.000000e+00  1.432414e-04) 
2.5	(   1.146642e+00   0.000000e+00 -3.212948e-02) (   5.733208e+00   0.000000e+00 -7.061122e-04) (   1.146642e+01   0.000000e+00  1.901964e-03) (   1.719963e+01   0.000000e+00  6.790007e-04) (   2.293283e+01   0.000000e+00  1.713870e-04) 
2.6	(   1.146642e+00   0.000000e+00 -2.930756e-02) (   5.733208e+00   0.000000e+00 -2.301636e-03) (   1.146642e+01   0.000000e+00  1.929470e-03) (   1.719963e+01   0.000000e+00  7.660844e-04) (   2.293283e+01   0.000000e+00  2.033847e-04) 
2.7	(   1.146642e+00   0.000000e+00 -2.431973e-02) (   5.733208e+00   0.000000e+00 -4.125143e-03) (   1.146642e+01   0.000000e+00  1.906187e-03) (   1.719963e+01   0.000000e+00  8.551660e-04) (   2.293283e+01   0.000000e+00  2.394028e-04) 
2.8	(   1.146642e+00   0.000000e+00 -1.742840e-02) (   5.733208e+00   0.000000e+00 -6.140843e-03) (   1.146642e+01   0.000000e+00  1.819538e-03) (   1.719963e+01   0.000000e+00  9.440817e-04) (   2.293283e+01   0.000000e+00  2.795330e-04) 
2.9	(   1.146642e+00   0.000000e+00 -8.983853e-03) (   5.733208e+00   0.000000e+00 -8.278804e-03) (   1.146642e+01   0.000000e+00  1.660284e-03) (   1.719963e+01   0.000000e+00  1.030350e-03) (   2.293283e+01   0.000000e+00  3.237920e-04) 
3	(   1.146642e+00   0.000000e+00  5.869538e-04) (   5.733208e+00   0.000000e+00 -1.045006e-02) (   1.146642e+01   0.000000e+00  1.420567e-03) (   1.719963e+01   0.000000e+00  1.111104e-03) (   2.293283e+01   0.000000e+00  3.720871e-04) 
3.1	(   1.146642e+00   0.000000e+00  1.070076e-02) (   5.733208e+00   0.000000e+00 -1.254535e-02) (   1.146642e+01   0.000000e+00  1.092109e-03) (   1.719963e+01   0.000000e+00  1.182776e-03) (   2.293283e+01   0.000000e+00  4.241686e-04) 
3.2	(   1.146642e+00   0.000000e+00  2.072364e-02) (   5.733208e+00   0.000000e+00 -1.444156e-02) (   1.146642e+01   0.000000e+00  6.676535e-04) (   1.719963e+01   0.000000e+00  1.241129e-03) (   2.293283e+01   0.000000e+00  4.796153e-04) 
3.3	(   1.146642e+00   0.000000e+00  3.004577e-02) (   5.733208e+00   0.000000e+00 -1.599430e-02) (   1.146642e+01   0.000000e+00  1.430288e-04) (   1.719963e+01   0.000000e+00  1.281684e-03) (   2.293283e+01   0.000000e+00  5.378254e-04) 
3.4	(   1.146642e+00   0.000000e+00  3.823124e-02) (   5.733208e+00   0.000000e+00 -1.704221e-02) (   1.146642e+01   0.000000e+00 -4.818620e-04) (   1.719963e+01   0.000000e+00  1.300245e-03) (   2.293283e+01   0.000000e+00  5.979970e-04) 
3.5	(   1.146642e+00   0.000000e+00  4.485378e-02) (   5.733208e+00   0.000000e+00 -1.743897e-02) (   1.146642e+01   0.000000e+00 -1.202636e-03) (   1.719963e+01   0.000000e+00  1.291807e-03) (   2.293283e+01   0.000000e+00  6.591034e-04) 
3.6	(   1.146642e+00   0.000000e+00  4.946495e-02) (   5.733208e+00   0.000000e+00 -1.703608e-02) (   1.146642e+01   0.000000e+00 -2.010287e-03) (   1.719963e+01   0.000000e+00  1.250256e-03) (   2.293283e+01   0.000000e+00  7.198721e-04) 
3.7	(   1.146642e+00   0.000000e+00  5.169902e-02) (   5.733208e+00   0.000000e+00 -1.567107e-02) (   1.146642e+01   0.000000e+00 -2.890704e-03) (   1.719963e+01   0.000000e+00  1.170527e-03) (   2.293283e+01   0.000000e+00  7.787682e-04) 
3.8	(   1.146642e+00   0.000000e+00  5.133784e-02) (   5.733208e+00   0.000000e+00 -1.326155e-02) (   1.146642e+01   0.000000e+00 -3.824196e-03) (   1.719963e+01   0.000000e+00  1.047654e-03) (   2.293283e+01   0.000000e+00  8.339883e-04) 
3.9	(   1.146642e+00   0.000000e+00  4.799955e-02) (   5.733208e+00   0.000000e+00 -9.778271e-03) (   1.146642e+01   0.000000e+00 -4.785900e-03) (   1.719963e+01   0.000000e+00  8.771146e-04) (   2.293283e+01   0.000000e+00  8.834243e-04) 
4	(   1.146642e+00   0.000000e+00  4.176183e-02) (   5.733208e+00   0.000000e+00 -5.262523e-03) (   1.146642e+01   0.000000e+00 -5.748399e-03) (   1.719963e+01   0.000000e+00  6.551921e-04) (   2.293283e+01   0.000000e+00  9.246652e-04) 
4.1	(   1.146642e+00   0.000000e+00  3.299208e-02) (   5.733208e+00   0.000000e+00  1.661562e-04) (   1.146642e+01   0.000000e+00 -6.672866e-03) (   1.719963e+01   0.000000e+00  3.792477e-04) (   2.293283e+01   0.000000e+00  9.551300e-04) 
4.2	(   1.146642e+00   0.000000e+00  2.184852e-02) (   5.733208e+00   0.000000e+00  6.298113e-03) (   1.146642e+01   0.000000e+00 -7.515010e-03) (   1.719963e+01   0.000000e+00  4.794733e-05) (   2.293283e+01   0.000000e+00  9.722548e-04) 
4.3	(   1.146642e+00   0.000000e+00  8.573438e-03) (   5.733208e+00   0.000000e+00  1.282241e-02) (   1.146642e+01   0.000000e+00 -8.229414e-03) (   1.719963e+01   0.000000e+00 -3.386805e-04) (   2.293283e+01   0.000000e+00  9.733400e-04) 
4.4	(   1.146642e+00   0.000000e+00 -6.266283e-03) (   5.733208e+00   0.000000e+00  1.936588e-02) (   1.146642e+01   0.000000e+00 -8.767124e-03) (   1.719963e+01   0.000000e+00 -7.786782e-04) (   2.293283e+01   0.000000e+00  9.545401e-04) 
4.5	(   1.146642e+00   0.000000e+00 -2.171941e-02) (   5.733208e+00   0.000000e+00  2.549811e-02) (   1.146642e+01   0.000000e+00 -9.080409e-03) (   1.719963e+01   0.000000e+00 -1.267624e-03) (   2.293283e+01   0.000000e+00  9.127301e-04) 
4.6	(   1.146642e+00   0.000000e+00 -3.685022e-02) (   5.733208e+00   0.000000e+00  3.083057e-02) (   1.146642e+01   0.000000e+00 -9.127037e-03) (   1.719963e+01   0.000000e+00 -1.798592e-03) (   2.293283e+01   0.000000e+00  8.447824e-04) 
4.7	(   1.146642e+00   0.000000e+00 -5.113126e-02) (   5.733208e+00   0.000000e+00  3.494060e-02) (   1.146642e+01   0.000000e+00 -8.854051e-03) (   1.719963e+01   0.000000e+00 -2.362593e-03) (   2.293283e+01   0.000000e+00  7.477174e-04) 
4.8	(   1.146642e+00   0.000000e+00 -6.364182e-02) (   5.733208e+00   0.000000e+00  3.742934e-02) (   1.146642e+01   0.000000e+00 -8.229749e-03) (   1.719963e+01   0.000000e+00 -2.947997e-03) (   2.293283e+01   0.000000e+00  6.188968e-04) 
4.9	(   1.146642e+00   0.000000e+00 -7.324401e-02) (   5.733208e+00   0.000000e+00  3.802927e-02) (   1.146642e+01   0.000000e+00 -7.228530e-03) (   1.719963e+01   0.000000e+00 -3.540252e-03) (   2.293283e+01   0.000000e+00  4.561641e-04) 
5	(   1.146642e+00   0.000000e+00 -7.896953e-02) (   5.733208e+00   0.000000e+00  3.640063e-02) (   1.146642e+01   0.000000e+00 -5.837577e-03) (   1.719963e+01   0.000000e+00 -4.124982e-03) (   2.293283e+01   0.000000e+00  2.580109e-04) 
5.1	(   1.146642e+00   0.000000e+00 -8.016553e-02) (   5.733208e+00   0.000000e+00  3.245750e-02) (   1.146642e+01   0.000000e+00 -4.060247e-03) (   1.719963e+01   0.000000e+00 -4.679845e-03) (   2.293283e+01   0.000000e+00  2.367542e-05) 
5.2	(   1.146642e+00   0.000000e+00 -7.633460e-02) (   5.733208e+00   0.000000e+00  2.619930e-02) (   1.146642e+01   0.000000e+00 -1.922585e-03) (   1.719963e+01   0.000000e+00 -5.183016e-03) (   2.293283e+01   0.000000e+00 -2.467501e-04) 
5.3	(   1.146642e+00   0.000000e+00 -6.741236e-02) (   5.733208e+00   0.000000e+00  1.774820e-02) (   1.146642e+01   0.000000e+00  5.295273e-04) (   1.719963e+01   0.000000e+00 -5.610610e-03) (   2.293283e+01   0.000000e+00 -5.521088e-04) 
5.4	(   1.146642e+00   0.000000e+00 -5.398199e-02) (   5.733208e+00   0.000000e+00  7.434025e-03) (   1.146642e+01   0.000000e+00  3.230589e-03) (   1.719963e+01   0.000000e+00 -5.937748e-03) (   2.293283e+01   0.000000e+00 -8.900246e-04) 
5.5	(   1.146642e+00   0.000000e+00 -3.733381e-02) (   5.733208e+00   0.000000e+00 -4.252626e-03) (   1.146642e+01   0.000000e+00  6.091244e-03) (   1.719963e+01   0.000000e+00 -6.142052e-03) (   2.293283e+01   0.000000e+00 -1.256818e-03) 
5.6	(   1.146642e+00   0.000000e+00 -1.900043e-02) (   5.733208e+00   0.000000e+00 -1.667484e-02) (   1.146642e+01   0.000000e+00  9.000526e-03) (   1.719963e+01   0.000000e+00 -6.204832e-03) (   2.293283e+01   0.000000e+00 -1.647408e-03) 
5.7	(   1.146642e+00   0.000000e+00  4.236933e-04) (   5.733208e+00   0.000000e+00 -2.910156e-02) (   1.146642e+01   0.000000e+00  1.182916e-02) (   1.719963e+01   0.000000e+00 -6.101201e-03) (   2.293283e+01   0.000000e+00 -2.055248e-03) 
5.8	(   1.146642e+00   0.000000e+00  1.979454e-02) (   5.733208e+00   0.000000e+00 -4.095927e-02) (   1.146642e+01   0.000000e+00  1.442831e-02) (   1.719963e+01   0.000000e+00 -5.813445e-03) (   2.293283e+01   0.000000e+00 -2.472370e-03) 
5.9	(   1.146642e+00   0.000000e+00  3.797630e-02) (   5.733208e+00   0.000000e+00 -5.140796e-02) (   1.146642e+01   0.000000e+00  1.663087e-02) (   1.719963e+01   0.000000e+00 -5.330161e-03) (   2.293283e+01   0.000000e+00 -2.890014e-03) 
6	(   1.146642e+00   0.000000e+00  5.467649e-02) (   5.733208e+00   0.000000e+00 -5.947771e-02) (   1.146642e+01   0.000000e+00  1.827901e-02) (   1.719963e+01   0.000000e+00 -4.644167e-03) (   2.293283e+01   0.000000e+00 -3.297958e-03) 
6.1	(   1.146642e+00   0.000000e+00  6.910437e-02) (   5.733208e+00   0.000000e+00 -6.442554e-02) (   1.146642e+01   0.000000e+00  1.924792e-02) (   1.719963e+01   0.000000e+00 -3.755236e-03) (   2.293283e+01   0.000000e+00 -3.682541e-03) 
6.2	(   1.146642e+00   0.000000e+00  8.016937e-02) (   5.733208e+00   0.000000e+00 -6.584520e-02) (   1.146642e+01   0.000000e+00  1.942873e-02) (   1.719963e+01   0.000000e+00 -2.671239e-03) (   2.293283e+01   0.000000e+00 -4.030270e-03) 
6.3	(   1.146642e+00   0.000000e+00  8.696085e-02) (   5.733208e+00   0.000000e+00 -6.343991e-02) (   1.146642e+01   0.000000e+00  1.866268e-02) (   1.719963e+01   0.000000e+00 -1.408940e-03) (   2.293283e+01   0.000000e+00 -4.326762e-03) 
6.4	(   1.146642e+00   0.000000e+00  8.902072e-02) (   5.733208e+00   0.000000e+00 -5.713134e-02) (   1.146642e+01   0.000000e+00  1.685263e-02) (   1.719963e+01   0.000000e+00  5.654359e-06) (   2.293283e+01   0.000000e+00 -4.557587e-03) 
6.5	(   1.146642e+00   0.000000e+00  8.603385e-02) (   5.733208e+00   0.000000e+00 -4.734780e-02) (   1.146642e+01   0.000000e+00  1.396087e-02) (   1.719963e+01   0.000000e+00  1.537031e-03) (   2.293283e+01   0.000000e+00 -4.709557e-03) 
6.6	(   1.146642e+00   0.000000e+00  7.816660e-02) (   5.733208e+00   0.000000e+00 -3.487148e-02) (   1.146642e+01   0.000000e+00  9.996240e-03) (   1.719963e+01   0.000000e+00  3.140358e-03) (   2.293283e+01   0.000000e+00 -4.771589e-03) 
6.7	(   1.146642e+00   0.000000e+00  6.596639e-02) (   5.733208e+00   0.000000e+00 -2.043679e-02) (   1.146642e+01   0.000000e+00  5.020471e-03) (   1.719963e+01   0.000000e+00  4.761661e-03) (   2.293283e+01   0.000000e+00 -4.730877e-03) 
6.8	(   1.146642e+00   0.000000e+00  5.007570e-02) (   5.733208e+00   0.000000e+00 -4.579909e-03) (   1.146642e+01   0.000000e+00 -8.436164e-04) (   1.719963e+01   0.000000e+00  6.338763e-03) (   2.293283e+01   0.000000e+00 -4.575291e-03) 
6.9	(   1.146642e+00   0.000000e+00  3.161676e-02) (   5.733208e+00   0.000000e+00  1.184813e-02) (   1.146642e+01   0.000000e+00 -7.401750e-03) (   1.719963e+01   0.000000e+00  7.802982e-03) (   2.293283e+01   0.000000e+00 -4.298570e-03) 
7	(   1.146642e+00   0.000000e+00  1.153437e-02) (   5.733208e+00   0.000000e+00  2.795955e-02) (   1.146642e+01   0.000000e+00 -1.439045e-02) (   1.719963e+01   0.000000e+00  9.080880e-03) (   2.293283e+01   0.000000e+00 -3.896484e-03) 
7.1	(   1.146642e+00   0.000000e+00 -9.254594e-03) (   5.733208e+00   0.000000e+00  4.298050e-02) (   1.146642e+01   0.000000e+00 -2.148287e-02) (   1.719963e+01   0.000000e+00  1.009552e-02) (   2.293283e+01   0.000000e+00 -3.368325e-03) 
7.2	(   1.146642e+00   0.000000e+00 -2.934779e-02) (   5.733208e+00   0.000000e+00  5.639489e-02) (   1.146642e+01   0.000000e+00 -2.833152e-02) (   1.719963e+01   0.000000e+00  1.077738e-02) (   2.293283e+01   0.000000e+00 -2.717506e-03) 
7.3	(   1.146642e+00   0.000000e+00 -4.820484e-02) (   5.733208e+00   0.000000e+00  6.734846e-02) (   1.146642e+01   0.000000e+00 -3.455920e-02) (   1.719963e+01   0.000000e+00  1.107081e-02) (   2.293283e+01   0.000000e+00 -1.952192e-03) 
7.4	(   1.146642e+00   0.000000e+00 -6.522137e-02) (   5.733208e+00   0.000000e+00  7.506651e-02) (   1.146642e+01   0.000000e+00 -3.971467e-02) (   1.719963e+01   0.000000e+00  1.091600e-02) (   2.293283e+01   0.000000e+00 -1.085597e-03) 
7.5	(   1.146642e+00   0.000000e+00 -7.943936e-02) (   5.733208e+00   0.000000e+00  7.900809e-02) (   1.146642e+01   0.000000e+00 -4.328525e-02) (   1.719963e+01   0.000000e+00  1.024203e-02) (   2.293283e+01   0.000000e+00 -1.360696e-04) 
7.6	(   1.146642e+00   0.000000e+00 -8.988669e-02) (   5.733208e+00   0.000000e+00  7.890762e-02) (   1.146642e+01   0.000000e+00 -4.485294e-02) (   1.719963e+01   0.000000e+00  9.020891e-03) (   2.293283e+01   0.000000e+00  8.729051e-04) 
7.7	(   1.146642e+00   0.000000e+00 -9.547047e-02) (   5.733208e+00   0.000000e+00  7.438076e-02) (   1.146642e+01   0.000000e+00 -4.410570e-02) (   1.719963e+01   0.000000e+00  7.239436e-03) (   2.293283e+01   0.000000e+00  1.912871e-03) 
7.8	(   1.146642e+00   0.000000e+00 -9.508668e-02) (   5.733208e+00   0.000000e+00  6.571585e-02) (   1.146642e+01   0.000000e+00 -4.064166e-02) (   1.719963e+01   0.000000e+00  4.907650e-03) (   2.293283e+01   0.000000e+00  2.950848e-03) 
7.9	(   1.146642e+00   0.000000e+00 -8.783145e-02) (   5.733208e+00   0.000000e+00  5.334501e-02) (   1.146642e+01   0.000000e+00 -3.474517e-02) (   1.719963e+01   0.000000e+00  2.062075e-03) (   2.293283e+01   0.000000e+00  3.949791e-03) 
8	(   1.146642e+00   0.000000e+00 -7.497675e-02) (   5.733208e+00   0.000000e+00  3.789094e-02) (   1.146642e+01   0.000000e+00 -2.669435e-02) (   1.719963e+01   0.000000e+00 -1.233087e-03) (   2.293283e+01   0.000000e+00  4.869732e-03) 
8.1	(   1.146642e+00   0.000000e+00 -5.839712e-02) (   5.733208e+00   0.000000e+00  2.025113e-02) (   1.146642e+01   0.000000e+00 -1.662159e-02) (   1.719963e+01   0.000000e+00 -4.883735e-03) (   2.293283e+01   0.000000e+00  5.668254e-03) 
8.2	(   1.146642e+00   0.000000e+00 -3.961177e-02) (   5.733208e+00   0.000000e+00  7.813881e-04) (   1.146642e+01   0.000000e+00 -5.005378e-03) (   1.719963e+01   0.000000e+00 -8.766247e-03) (   2.293283e+01   0.000000e+00  6.301548e-03) 
8.3	(   1.146642e+00   0.000000e+00 -1.995172e-02) (   5.733208e+00   0.000000e+00 -1.948204e-02) (   1.146642e+01   0.000000e+00  7.550700e-03) (   1.719963e+01   0.000000e+00 -1.273005e-02) (   2.293283e+01   0.000000e+00  6.730611e-03) 
8.4	(   1.146642e+00   0.000000e+00  4.964516e-04) (   5.733208e+00   0.000000e+00 -3.954792e-02) (   1.146642e+01   0.000000e+00  2.035840e-02) (   1.719963e+01   0.000000e+00 -1.660133e-02) (   2.293283e+01   0.000000e+00  6.924460e-03) 
8.5	(   1.146642e+00   0.000000e+00  2.061805e-02) (   5.733208e+00   0.000000e+00 -5.864266e-02) (   1.146642e+01   0.000000e+00  3.266068e-02) (   1.719963e+01   0.000000e+00 -2.019688e-02) (   2.293283e+01   0.000000e+00  6.849079e-03) 
8.6	(   1.146642e+00   0.000000e+00  3.917384e-02) (   5.733208e+00   0.000000e+00 -7.517318e-02) (   1.146642e+01   0.000000e+00  4.405229e-02) (   1.719963e+01   0.000000e+00 -2.331954e-02) (   2.293283e+01   0.000000e+00  6.463036e-03) 
8.7	(   1.146642e+00   0.000000e+00  5.588105e-02) (   5.733208e+00   0.000000e+00 -8.753801e-02) (   1.146642e+01   0.000000e+00  5.389293e-02) (   1.719963e+01   0.000000e+00 -2.573342e-02) (   2.293283e+01   0.000000e+00  5.751003e-03) 
8.8	(   1.146642e+00   0.000000e+00  7.003806e-02) (   5.733208e+00   0.000000e+00 -9.458040e-02) (   1.146642e+01   0.000000e+00  6.138444e-02) (   1.719963e+01   0.000000e+00 -2.725564e-02) (   2.293283e+01   0.000000e+00  4.704690e-03) 
8.9	(   1.146642e+00   0.000000e+00  8.073284e-02) (   5.733208e+00   0.000000e+00 -9.578738e-02) (   1.146642e+01   0.000000e+00  6.583554e-02) (   1.719963e+01   0.000000e+00 -2.775154e-02) (   2.293283e+01   0.000000e+00  3.327941e-03) 
9	(   1.146642e+00   0.000000e+00  8.722192e-02) (   5.733208e+00   0.000000e+00 -9.072662e-02) (   1.146642e+01   0.000000e+00  6.681128e-02) (   1.719963e+01   0.000000e+00 -2.707964e-02) (   2.293283e+01   0.000000e+00  1.638308e-03) 
9.1	(   1.146642e+00   0.000000e+00  8.910561e-02) (   5.733208e+00   0.000000e+00 -7.978409e-02) (   1.146642e+01   0.000000e+00  6.387975e-02) (   1.719963e+01   0.000000e+00 -2.510729e-02) (   2.293283e+01   0.000000e+00 -3.316603e-04) 
9.2	(   1.146642e+00   0.000000e+00  8.612850e-02) (   5.733208e+00   0.000000e+00 -6.408748e-02) (   1.146642e+01   0.000000e+00  5.707708e-02) (   1.719963e+01   0.000000e+00 -2.182268e-02) (   2.293283e+01   0.000000e+00 -2.534180e-03) 
9.3	(   1.146642e+00   0.000000e+00  7.851051e-02) (   5.733208e+00   0.000000e+00 -4.502652e-02) (   1.146642e+01   0.000000e+00  4.680737e-02) (   1.719963e+01   0.000000e+00 -1.726905e-02) (   2.293283e+01   0.000000e+00 -4.906387e-03) 
9.4	(   1.146642e+00   0.000000e+00  6.674262e-02) (   5.733208e+00   0.000000e+00 -2.448347e-02) (   1.146642e+01   0.000000e+00  3.396168e-02) (   1.719963e+01   0.000000e+00 -1.156157e-02) (   2.293283e+01   0.000000e+00 -7.370875e-03) 
9.5	(   1.146642e+00   0.000000e+00  5.133885e-02) (   5.733208e+00   0.000000e+00 -3.279391e-03) (   1.146642e+01   0.000000e+00  1.904600e-02) (   1.719963e+01   0.000000e+00 -4.886912e-03) (   2.293283e+01   0.000000e+00 -9.836979e-03) 
9.6	(   1.146642e+00   0.000000e+00  3.325754e-02) (   5.733208e+00   0.000000e+00  1.759207e-02) (   1.146642e+01   0.000000e+00  2.311183e-03) (   1.719963e+01   0.000000e+00  2.502484e-03) (   2.293283e+01   0.000000e+00 -1.220371e-02) 
9.7	(   1.146642e+00   0.000000e+00  1.344940e-02) (   5.733208e+00   0.000000e+00  3.699594e-02) (   1.146642e+01   0.000000e+00 -1.534868e-02) (   1.719963e+01   0.000000e+00  1.029661e-02) (   2.293283e+01   0.000000e+00 -1.436249e-02) 
9.8	(   1.146642e+00   0.000000e+00 -7.261141e-03) (   5.733208e+00   0.000000e+00  5.442662e-02) (   1.146642e+01   0.000000e+00 -3.299921e-02) (   1.719963e+01   0.000000e+00  1.813923e-02) (   2.293283e+01   0.000000e+00 -1.620052e-02) 
9.9	(   1.146642e+00   0.000000e+00 -2.742964e-02) (   5.733208e+00   0.000000e+00  6.910912e-02) (   1.146642e+01   0.000000e+00 -5.031381e-02) (   1.719963e+01   0.000000e+00  2.563374e-02) (   2.293283e+01   0.000000e+00 -1.761333e-02) 
10	(   1.146642e+00   0.000000e+00 -4.643063e-02) (   5.733208e+00   0.000000e+00  8.013531e-02) (   1.146642e+01   0.000000e+00 -6.611203e-02) (   1.719963e+01   0.000000e+00  3.236053e-02) (   2.293283e+01   0.000000e+00 -1.849168e-02) 
10.1	(   1.146642e+00   0.000000e+00 -6.375312e-02) (   5.733208e+00   0.000000e+00  8.686541e-02) (   1.146642e+01   0.000000e+00 -7.872458e-02) (   1.719963e+01   0.000000e+00  3.800395e-02) (   2.293283e+01   0.000000e+00 -1.876330e-02) 
10.2	(   1.146642e+00   0.000000e+00 -7.838673e-02) (   5.733208e+00   0.000000e+00  8.899171e-02) (   1.146642e+01   0.000000e+00 -8.677148e-02) (   1.719963e+01   0.000000e+00  4.219800e-02) (   2.293283e+01   0.000000e+00 -1.834136e-02) 
10.3	(   1.146642e+00   0.000000e+00 -8.925669e-02) (   5.733208e+00   0.000000e+00  8.633845e-02) (   1.146642e+01   0.000000e+00 -8.942253e-02) (   1.719963e+01   0.000000e+00  4.462239e-02) (   2.293283e+01   0.000000e+00 -1.715988e-02) 
10.4	(   1.146642e+00   0.000000e+00 -9.525515e-02) (   5.733208e+00   0.000000e+00  7.899232e-02) (   1.146642e+01   0.000000e+00 -8.629885e-02) (   1.719963e+01   0.000000e+00  4.505236e-02) (   2.293283e+01   0.000000e+00 -1.520671e-02) 
10.5	(   1.146642e+00   0.000000e+00 -9.537808e-02) (   5.733208e+00   0.000000e+00  6.757357e-02) (   1.146642e+01   0.000000e+00 -7.739810e-02) (   1.719963e+01   0.000000e+00  4.318114e-02) (   2.293283e+01   0.000000e+00 -1.249668e-02) 
10.6	(   1.146642e+00   0.000000e+00 -8.873101e-02) (   5.733208e+00   0.000000e+00  5.278854e-02) (   1.146642e+01   0.000000e+00 -6.377033e-02) (   1.719963e+01   0.000000e+00  3.893579e-02) (   2.293283e+01   0.000000e+00 -9.080639e-03) 
10.7	(   1.146642e+00   0.000000e+00 -7.640145e-02) (   5.733208e+00   0.000000e+00  3.549543e-02) (   1.146642e+01   0.000000e+00 -4.675956e-02) (   1.719963e+01   0.000000e+00  3.252228e-02) (   2.293283e+01   0.000000e+00 -5.046802e-03) 
10.8	(   1.146642e+00   0.000000e+00 -6.016227e-02) (   5.733208e+00   0.000000e+00  1.661232e-02) (   1.146642e+01   0.000000e+00 -2.839346e-02) (   1.719963e+01   0.000000e+00  2.397892e-02) (   2.293283e+01   0.000000e+00 -5.200237e-04) 
10.9	(   1.146642e+00   0.000000e+00 -4.152274e-02) (   5.733208e+00   0.000000e+00 -3.421063e-03) (   1.146642e+01   0.000000e+00 -9.079419e-03) (   1.719963e+01   0.000000e+00  1.353302e-02) (   2.293283e+01   0.000000e+00  4.340747e-03) 
11	(   1.146642e+00   0.000000e+00 -2.192893e-02) (   5.733208e+00   0.000000e+00 -2.358157e-02) (   1.146642e+01   0.000000e+00  1.061962e-02) (   1.719963e+01   0.000000e+00  1.569003e-03) (   2.293283e+01   0.000000e+00  9.348272e-03) 
11.1	(   1.146642e+00   0.000000e+00 -1.508352e-03) (   5.733208e+00   0.000000e+00 -4.306761e-02) (   1.146642e+01   0.000000e+00  2.969360e-02) (   1.719963e+01   0.000000e+00 -1.137963e-02) (   2.293283e+01   0.000000e+00  1.429314e-02) 
11.2	(   1.146642e+00   0.000000e+00  1.870067e-02) (   5.733208e+00   0.000000e+00 -6.111165e-02) (   1.146642e+01   0.000000e+00  4.765388e-02) (   1.719963e+01   0.000000e+00 -2.466273e-02) (   2.293283e+01   0.000000e+00  1.895047e-02) 
11.3	(   1.146642e+00   0.000000e+00  3.741579e-02) (   5.733208e+00   0.000000e+00 -7.637985e-02) (   1.146642e+01   0.000000e+00  6.404430e-02) (   1.719963e+01   0.000000e+00 -3.770962e-02) (   2.293283e+01   0.000000e+00  2.308314e-02) 
11.4	(   1.146642e+00   0.000000e+00  5.430919e-02) (   5.733208e+00   0.000000e+00 -8.761769e-02) (   1.146642e+01   0.000000e+00  7.758529e-02) (   1.719963e+01   0.000000e+00 -4.985015e-02) (   2.293283e+01   0.000000e+00  2.644733e-02) 
11.5	(   1.146642e+00   0.000000e+00  6.874408e-02) (   5.733208e+00   0.000000e+00 -9.387612e-02) (   1.146642e+01   0.000000e+00  8.711449e-02) (   1.719963e+01   0.000000e+00 -6.009213e-02) (   2.293283e+01   0.000000e+00  2.887925e-02) 
11.6	(   1.146642e+00   0.000000e+00  7.981014e-02) (   5.733208e+00   0.000000e+00 -9.472344e-02) (   1.146642e+01   0.000000e+00  9.182445e-02) (   1.719963e+01   0.000000e+00 -6.746750e-02) (   2.293283e+01   0.000000e+00  3.021512e-02) 
11.7	(   1.146642e+00   0.000000e+00  8.674625e-02) (   5.733208e+00   0.000000e+00 -8.966456e-02) (   1.146642e+01   0.000000e+00  9.132710e-02) (   1.719963e+01   0.000000e+00 -7.122760e-02) (   2.293283e+01   0.000000e+00  3.032783e-02) 
11.8	(   1.146642e+00   0.000000e+00  8.909813e-02) (   5.733208e+00   0.000000e+00 -7.897617e-02) (   1.146642e+01   0.000000e+00  8.520726e-02) (   1.719963e+01   0.000000e+00 -7.097701e-02) (   2.293283e+01   0.000000e+00  2.904602e-02) 
11.9	(   1.146642e+00   0.000000e+00  8.663828e-02) (   5.733208e+00   0.000000e+00 -6.360648e-02) (   1.146642e+01   0.000000e+00  7.406165e-02) (   1.719963e+01   0.000000e+00 -6.622229e-02) (   2.293283e+01   0.000000e+00  2.632215e-02) 
12	(   1.146642e+00   0.000000e+00  7.946263e-02) (   5.733208e+00   0.000000e+00 -4.487932e-02) (   1.146642e+01   0.000000e+00  5.876605e-02) (   1.719963e+01   0.000000e+00 -5.721532e-02) (   2.293283e+01   0.000000e+00  2.216326e-02) 
12.1	(   1.146642e+00   0.000000e+00  6.808526e-02) (   5.733208e+00   0.000000e+00 -2.468659e-02) (   1.146642e+01   0.000000e+00  4.039695e-02) (   1.719963e+01   0.000000e+00 -4.458889e-02) (   2.293283e+01   0.000000e+00  1.664046e-02) 
12.2	(   1.146642e+00   0.000000e+00  5.300832e-02) (   5.733208e+00   0.000000e+00 -3.897261e-03) (   1.146642e+01   0.000000e+00  2.067551e-02) (   1.719963e+01   0.000000e+00 -2.954278e-02) (   2.293283e+01   0.000000e+00  9.894147e-03) 
12.3	(   1.146642e+00   0.000000e+00  3.512485e-02) (   5.733208e+00   0.000000e+00  1.647993e-02) (   1.146642e+01   0.000000e+00 -6.295291e-04) (   1.719963e+01   0.000000e+00 -1.274550e-02) (   2.293283e+01   0.000000e+00  2.139155e-03) 
12.4	(   1.146642e+00   0.000000e+00  1.547999e-02) (   5.733208e+00   0.000000e+00  3.536799e-02) (   1.146642e+01   0.000000e+00 -2.241424e-02) (   1.719963e+01   0.000000e+00  4.972235e-03) (   2.293283e+01   0.000000e+00 -6.334990e-03) 