           0.1	   3.999968e+00  -1.000032e+00   3.999993e+00  -1.000007e+00   3.999999e+00  -1.000001e+00   4.000000e+00  -1.000000e+00   4.000000e+00  -1.000000e+00
0.2	   3.999794e+00  -1.000206e+00   3.999960e+00  -1.000040e+00   3.999991e+00  -1.000009e+00   3.999998e+00  -1.000002e+00   3.999999e+00  -1.000001e+00
0.3	   3.999410e+00  -1.000590e+00   3.999890e+00  -1.000110e+00   3.999975e+00  -1.000025e+00   3.999994e+00  -1.000006e+00   3.999999e+00  -1.000001e+00
0.4	   3.998776e+00  -1.001224e+00   3.999777e+00  -1.000223e+00   3.999949e+00  -1.000051e+00   3.999987e+00  -1.000013e+00   3.999997e+00  -1.000003e+00
0.5	   3.997887e+00  -1.002113e+00   3.999620e+00  -1.000380e+00   3.999912e+00  -1.000088e+00   3.999978e+00  -1.000022e+00   3.999994e+00  -1.000006e+00
0.6	   3.996785e+00  -1.003215e+00   3.999421e+00  -1.000579e+00   3.999863e+00  -1.000137e+00   3.999965e+00  -1.000035e+00   3.999991e+00  -1.000009e+00
0.7	   3.995562e+00  -1.004438e+00   3.999184e+00  -1.000816e+00   3.999802e+00  -1.000198e+00   3.999948e+00  -1.000052e+00   3.999986e+00  -1.000014e+00
0.8	   3.994378e+00  -1.005622e+00   3.998916e+00  -1.001084e+00   3.999730e+00  -1.000270e+00   3.999927e+00  -1.000073e+00   3.999981e+00  -1.000019e+00
0.9	   3.993457e+00  -1.006543e+00   3.998629e+00  -1.001371e+00   3.999646e+00  -1.000354e+00   3.999902e+00  -1.000098e+00   3.999973e+00  -1.000027e+00
1	   3.993084e+00  -1.006916e+00   3.998339e+00  -1.001661e+00   3.999553e+00  -1.000447e+00   3.999872e+00  -1.000128e+00   3.999963e+00  -1.000037e+00
1.1	   3.993543e+00  -1.006457e+00   3.998066e+00  -1.001934e+00   3.999453e+00  -1.000547e+00   3.999836e+00  -1.000164e+00   3.999952e+00  -1.000048e+00
1.2	   3.995072e+00  -1.004928e+00   3.997833e+00  -1.002167e+00   3.999347e+00  -1.000653e+00   3.999796e+00  -1.000204e+00   3.999938e+00  -1.000062e+00
1.3	   3.997802e+00  -1.002198e+00   3.997676e+00  -1.002324e+00   3.999244e+00  -1.000756e+00   3.999752e+00  -1.000248e+00   3.999921e+00  -1.000079e+00
1.4	   4.001622e+00  -9.983776e-01   3.997622e+00  -1.002378e+00   3.999145e+00  -1.000855e+00   3.999703e+00  -1.000297e+00   3.999902e+00  -1.000098e+00
1.5	   4.006183e+00  -9.938169e-01   3.997696e+00  -1.002304e+00   3.999056e+00  -1.000944e+00   3.999652e+00  -1.000348e+00   3.999880e+00  -1.000120e+00
1.6	   4.010989e+00  -9.890112e-01   3.997931e+00  -1.002069e+00   3.998982e+00  -1.001018e+00   3.999598e+00  -1.000402e+00   3.999855e+00  -1.000145e+00
1.7	   4.015455e+00  -9.845452e-01   3.998351e+00  -1.001649e+00   3.998930e+00  -1.001070e+00   3.999542e+00  -1.000458e+00   3.999828e+00  -1.000172e+00
1.8	   4.018989e+00  -9.810109e-01   3.998968e+00  -1.001032e+00   3.998905e+00  -1.001095e+00   3.999487e+00  -1.000513e+00   3.999797e+00  -1.000203e+00
1.9	   4.021128e+00  -9.788716e-01   3.999793e+00  -1.000207e+00   3.998914e+00  -1.001086e+00   3.999433e+00  -1.000567e+00   3.999764e+00  -1.000236e+00
2	   4.021473e+00  -9.785266e-01   4.000827e+00  -9.991731e-01   3.998963e+00  -1.001037e+00   3.999384e+00  -1.000616e+00   3.999728e+00  -1.000272e+00
2.1	   4.019714e+00  -9.802856e-01   4.002057e+00  -9.979429e-01   3.999061e+00  -1.000939e+00   3.999341e+00  -1.000659e+00   3.999690e+00  -1.000310e+00
2.2	   4.015761e+00  -9.842387e-01   4.003449e+00  -9.965508e-01   3.999212e+00  -1.000788e+00   3.999308e+00  -1.000692e+00   3.999652e+00  -1.000348e+00
2.3	   4.009852e+00  -9.901480e-01   4.004946e+00  -9.950536e-01   3.999423e+00  -1.000577e+00   3.999288e+00  -1.000712e+00   3.999613e+00  -1.000387e+00
2.4	   4.002499e+00  -9.975014e-01   4.006472e+00  -9.935278e-01   3.999696e+00  -1.000304e+00   3.999284e+00  -1.000716e+00   3.999575e+00  -1.000425e+00
2.5	   3.994368e+00  -1.005632e+00   4.007932e+00  -9.920683e-01   4.000037e+00  -9.999626e-01   3.999301e+00  -1.000699e+00   3.999540e+00  -1.000460e+00
2.6	   3.986124e+00  -1.013876e+00   4.009187e+00  -9.908130e-01   4.000444e+00  -9.995563e-01   3.999343e+00  -1.000657e+00   3.999508e+00  -1.000492e+00
2.7	   3.978473e+00  -1.021527e+00   4.010080e+00  -9.899198e-01   4.000910e+00  -9.990903e-01   3.999413e+00  -1.000587e+00   3.999483e+00  -1.000517e+00
2.8	   3.972124e+00  -1.027876e+00   4.010446e+00  -9.895541e-01   4.001426e+00  -9.985735e-01   3.999514e+00  -1.000486e+00   3.999465e+00  -1.000535e+00
2.9	   3.967666e+00  -1.032334e+00   4.010109e+00  -9.898911e-01   4.001979e+00  -9.980213e-01   3.999647e+00  -1.000353e+00   3.999457e+00  -1.000543e+00
3	   3.965581e+00  -1.034419e+00   4.008924e+00  -9.910760e-01   4.002548e+00  -9.974521e-01   3.999816e+00  -1.000184e+00   3.999462e+00  -1.000538e+00
3.1	   3.966190e+00  -1.033810e+00   4.006799e+00  -9.932015e-01   4.003110e+00  -9.968902e-01   4.000019e+00  -9.999811e-01   3.999481e+00  -1.000519e+00
3.2	   3.969638e+00  -1.030362e+00   4.003714e+00  -9.962863e-01   4.003635e+00  -9.963649e-01   4.000256e+00  -9.997437e-01   3.999517e+00  -1.000483e+00
3.3	   3.975881e+00  -1.024119e+00   3.999756e+00  -1.000244e+00   4.004091e+00  -9.959091e-01   4.000525e+00  -9.994748e-01   3.999571e+00  -1.000429e+00
3.4	   3.984654e+00  -1.015346e+00   3.995128e+00  -1.004872e+00   4.004441e+00  -9.955591e-01   4.000821e+00  -9.991785e-01   3.999646e+00  -1.000354e+00
3.5	   3.995487e+00  -1.004513e+00   3.990155e+00  -1.009845e+00   4.004647e+00  -9.953530e-01   4.001139e+00  -9.988612e-01   3.999742e+00  -1.000258e+00
3.6	   4.007650e+00  -9.923501e-01   3.985252e+00  -1.014748e+00   4.004668e+00  -9.953316e-01   4.001468e+00  -9.985317e-01   3.999862e+00  -1.000138e+00
3.7	   4.020215e+00  -9.797855e-01   3.980905e+00  -1.019095e+00   4.004467e+00  -9.955330e-01   4.001799e+00  -9.982009e-01   4.000004e+00  -9.999964e-01
3.8	   4.032139e+00  -9.678606e-01   3.977632e+00  -1.022368e+00   4.004013e+00  -9.959865e-01   4.002118e+00  -9.978815e-01   4.000168e+00  -9.998322e-01
3.9	   4.042257e+00  -9.577426e-01   3.975913e+00  -1.024087e+00   4.003287e+00  -9.967131e-01   4.002412e+00  -9.975881e-01   4.000353e+00  -9.996475e-01
4	   4.049331e+00  -9.506687e-01   3.976129e+00  -1.023871e+00   4.002278e+00  -9.977224e-01   4.002663e+00  -9.973372e-01   4.000555e+00  -9.994449e-01
4.1	   4.052322e+00  -9.476784e-01   3.978534e+00  -1.021466e+00   4.000994e+00  -9.990058e-01   4.002854e+00  -9.971462e-01   4.000772e+00  -9.992281e-01
4.2	   4.050616e+00  -9.493843e-01   3.983201e+00  -1.016799e+00   3.999467e+00  -1.000533e+00   4.002968e+00  -9.970322e-01   4.000998e+00  -9.990020e-01
4.3	   4.044195e+00  -9.558049e-01   3.989983e+00  -1.010017e+00   3.997748e+00  -1.002252e+00   4.002988e+00  -9.970122e-01   4.001227e+00  -9.987726e-01
4.4	   4.033565e+00  -9.664348e-01   3.998490e+00  -1.001510e+00   3.995913e+00  -1.004087e+00   4.002898e+00  -9.971018e-01   4.001453e+00  -9.985472e-01
4.5	   4.019714e+00  -9.802859e-01   4.008116e+00  -9.918844e-01   3.994065e+00  -1.005935e+00   4.002686e+00  -9.973135e-01   4.001666e+00  -9.983339e-01
4.6	   4.004019e+00  -9.959813e-01   4.018074e+00  -9.819258e-01   3.992331e+00  -1.007669e+00   4.002346e+00  -9.976543e-01   4.001859e+00  -9.981414e-01
4.7	   3.987934e+00  -1.012066e+00   4.027437e+00  -9.725635e-01   3.990856e+00  -1.009144e+00   4.001874e+00  -9.981258e-01   4.002021e+00  -9.979787e-01
4.8	   3.972758e+00  -1.027242e+00   4.035185e+00  -9.648150e-01   3.989787e+00  -1.010213e+00   4.001276e+00  -9.987245e-01   4.002144e+00  -9.978556e-01
4.9	   3.959687e+00  -1.040313e+00   4.040384e+00  -9.596163e-01   3.989273e+00  -1.010727e+00   4.000560e+00  -9.994396e-01   4.002218e+00  -9.977816e-01
5	   3.949751e+00  -1.050249e+00   4.042335e+00  -9.576653e-01   3.989445e+00  -1.010555e+00   3.999748e+00  -1.000252e+00   4.002234e+00  -9.977656e-01
5.1	   3.943737e+00  -1.056263e+00   4.040658e+00  -9.593420e-01   3.990416e+00  -1.009584e+00   3.998865e+00  -1.001135e+00   4.002184e+00  -9.978155e-01
5.2	   3.942152e+00  -1.057848e+00   4.035382e+00  -9.646184e-01   3.992253e+00  -1.007747e+00   3.997950e+00  -1.002050e+00   4.002063e+00  -9.979375e-01
5.3	   3.945167e+00  -1.054833e+00   4.026902e+00  -9.730976e-01   3.994970e+00  -1.005030e+00   3.997045e+00  -1.002955e+00   4.001865e+00  -9.981355e-01
5.4	   3.952636e+00  -1.047364e+00   4.015894e+00  -9.841063e-01   3.998516e+00  -1.001484e+00   3.996202e+00  -1.003798e+00   4.001590e+00  -9.984104e-01
5.5	   3.964053e+00  -1.035947e+00   4.003234e+00  -9.967661e-01   4.002761e+00  -9.972388e-01   3.995477e+00  -1.004523e+00   4.001240e+00  -9.987601e-01
5.6	   3.978588e+00  -1.021412e+00   3.989924e+00  -1.010076e+00   4.007497e+00  -9.925033e-01   3.994929e+00  -1.005071e+00   4.000821e+00  -9.991786e-01
5.7	   3.995142e+00  -1.004858e+00   3.977021e+00  -1.022979e+00   4.012430e+00  -9.875695e-01   3.994616e+00  -1.005384e+00   4.000344e+00  -9.996558e-01
5.8	   4.012280e+00  -9.877198e-01   3.965546e+00  -1.034454e+00   4.017190e+00  -9.828104e-01   3.994591e+00  -1.005409e+00   3.999822e+00  -1.000178e+00
5.9	   4.028571e+00  -9.714287e-01   3.956428e+00  -1.043572e+00   4.021345e+00  -9.786548e-01   3.994902e+00  -1.005098e+00   3.999274e+00  -1.000726e+00
6	   4.042741e+00  -9.572586e-01   3.950441e+00  -1.049559e+00   4.024440e+00  -9.755601e-01   3.995582e+00  -1.004418e+00   3.998722e+00  -1.001278e+00
6.1	   4.053632e+00  -9.463681e-01   3.948156e+00  -1.051844e+00   4.026028e+00  -9.739720e-01   3.996646e+00  -1.003354e+00   3.998192e+00  -1.001808e+00
6.2	   4.060185e+00  -9.398149e-01   3.949880e+00  -1.050120e+00   4.025730e+00  -9.742704e-01   3.998091e+00  -1.001909e+00   3.997711e+00  -1.002289e+00
6.3	   4.061527e+00  -9.384726e-01   3.955648e+00  -1.044352e+00   4.023287e+00  -9.767128e-01   3.999885e+00  -1.000115e+00   3.997311e+00  -1.002689e+00
6.4	   4.057353e+00  -9.426466e-01   3.965195e+00  -1.034805e+00   4.018646e+00  -9.813543e-01   4.001973e+00  -9.980274e-01   3.997020e+00  -1.002980e+00
6.5	   4.048216e+00  -9.517836e-01   3.977946e+00  -1.022054e+00   4.011972e+00  -9.880279e-01   4.004267e+00  -9.957334e-01   3.996868e+00  -1.003132e+00
6.6	   4.035196e+00  -9.648044e-01   3.993064e+00  -1.006936e+00   4.003664e+00  -9.963364e-01   4.006652e+00  -9.933476e-01   3.996882e+00  -1.003118e+00
6.7	   4.019592e+00  -9.804077e-01   4.009465e+00  -9.905345e-01   3.994322e+00  -1.005678e+00   4.008988e+00  -9.910116e-01   3.997081e+00  -1.002919e+00
6.8	   4.002759e+00  -9.972413e-01   4.025820e+00  -9.741803e-01   3.984691e+00  -1.015309e+00   4.011111e+00  -9.888887e-01   3.997482e+00  -1.002518e+00
6.9	   3.986091e+00  -1.013909e+00   4.040679e+00  -9.593212e-01   3.975597e+00  -1.024403e+00   4.012846e+00  -9.871542e-01   3.998090e+00  -1.001910e+00
7	   3.970807e+00  -1.029193e+00   4.052535e+00  -9.474646e-01   3.967859e+00  -1.032141e+00   4.014014e+00  -9.859858e-01   3.998900e+00  -1.001100e+00
7.1	   3.957969e+00  -1.042031e+00   4.059992e+00  -9.400079e-01   3.962217e+00  -1.037783e+00   4.014450e+00  -9.855503e-01   3.999898e+00  -1.000102e+00
7.2	   3.948483e+00  -1.051517e+00   4.062029e+00  -9.379713e-01   3.959280e+00  -1.040720e+00   4.014011e+00  -9.859888e-01   4.001053e+00  -9.989470e-01
7.3	   3.943014e+00  -1.056986e+00   4.058242e+00  -9.417576e-01   3.959466e+00  -1.040534e+00   4.012602e+00  -9.873978e-01   4.002325e+00  -9.976748e-01
7.4	   3.941927e+00  -1.058073e+00   4.049111e+00  -9.508886e-01   3.962982e+00  -1.037018e+00   4.010189e+00  -9.898109e-01   4.003660e+00  -9.963403e-01
7.5	   3.945302e+00  -1.054698e+00   4.035730e+00  -9.642702e-01   3.969772e+00  -1.030228e+00   4.006813e+00  -9.931871e-01   4.004991e+00  -9.950094e-01
7.6	   3.952963e+00  -1.047037e+00   4.019531e+00  -9.804687e-01   3.979514e+00  -1.020486e+00   4.002596e+00  -9.974036e-01   4.006242e+00  -9.937579e-01
7.7	   3.964430e+00  -1.035570e+00   4.002070e+00  -9.979296e-01   3.991608e+00  -1.008392e+00   3.997747e+00  -1.002253e+00   4.007332e+00  -9.926684e-01
7.8	   3.978911e+00  -1.021089e+00   3.984853e+00  -1.015147e+00   4.005216e+00  -9.947842e-01   3.992547e+00  -1.007453e+00   4.008175e+00  -9.918253e-01
7.9	   3.995308e+00  -1.004692e+00   3.969205e+00  -1.030795e+00   4.019246e+00  -9.807536e-01   3.987343e+00  -1.012657e+00   4.008689e+00  -9.913114e-01
8	   4.012302e+00  -9.876981e-01   3.956280e+00  -1.043720e+00   4.032437e+00  -9.675630e-01   3.982517e+00  -1.017483e+00   4.008799e+00  -9.912008e-01
8.1	   4.028550e+00  -9.714504e-01   3.946992e+00  -1.053008e+00   4.043489e+00  -9.565108e-01   3.978469e+00  -1.021531e+00   4.008445e+00  -9.915548e-01
8.2	   4.042770e+00  -9.572295e-01   3.941951e+00  -1.058049e+00   4.051191e+00  -9.488085e-01   3.975582e+00  -1.024418e+00   4.007587e+00  -9.924130e-01
8.3	   4.053719e+00  -9.462807e-01   3.941452e+00  -1.058548e+00   4.054568e+00  -9.454318e-01   3.974193e+00  -1.025807e+00   4.006212e+00  -9.937875e-01
8.4	   4.060227e+00  -9.397728e-01   3.945491e+00  -1.054509e+00   4.053147e+00  -9.468534e-01   3.974563e+00  -1.025437e+00   4.004340e+00  -9.956597e-01
8.5	   4.061496e+00  -9.385041e-01   3.953762e+00  -1.046238e+00   4.046961e+00  -9.530391e-01   3.976860e+00  -1.023140e+00   4.002025e+00  -9.979749e-01
8.6	   4.057315e+00  -9.426850e-01   3.965678e+00  -1.034322e+00   4.036631e+00  -9.633687e-01   3.981120e+00  -1.018880e+00   3.999357e+00  -1.000643e+00
8.7	   4.048195e+00  -9.518054e-01   3.980430e+00  -1.019570e+00   4.023175e+00  -9.768250e-01   3.987237e+00  -1.012763e+00   3.996461e+00  -1.003539e+00
8.8	   4.035170e+00  -9.648299e-01   3.996975e+00  -1.003025e+00   4.007804e+00  -9.921956e-01   3.994946e+00  -1.005054e+00   3.993494e+00  -1.006506e+00
8.9	   4.019568e+00  -9.804322e-01   4.014031e+00  -9.859691e-01   3.991818e+00  -1.008182e+00   4.003826e+00  -9.961739e-01   3.990635e+00  -1.009365e+00
9	   4.002737e+00  -9.972627e-01   4.030217e+00  -9.697833e-01   3.976486e+00  -1.023514e+00   4.013303e+00  -9.866971e-01   3.988077e+00  -1.011923e+00
9.1	   3.986066e+00  -1.013934e+00   4.044162e+00  -9.558384e-01   3.962999e+00  -1.037001e+00   4.022653e+00  -9.773472e-01   3.986019e+00  -1.013981e+00
9.2	   3.970786e+00  -1.029214e+00   4.054605e+00  -9.453948e-01   3.952366e+00  -1.047634e+00   4.031059e+00  -9.689410e-01   3.984650e+00  -1.015350e+00
9.3	   3.957969e+00  -1.042031e+00   4.060522e+00  -9.394784e-01   3.945371e+00  -1.054629e+00   4.037657e+00  -9.623433e-01   3.984133e+00  -1.015867e+00
9.4	   3.948502e+00  -1.051498e+00   4.061342e+00  -9.386579e-01   3.942567e+00  -1.057433e+00   4.041641e+00  -9.583595e-01   3.984600e+00  -1.015400e+00
9.5	   3.943032e+00  -1.056968e+00   4.056904e+00  -9.430963e-01   3.944250e+00  -1.055750e+00   4.042356e+00  -9.576437e-01   3.986132e+00  -1.013868e+00
9.6	   3.941934e+00  -1.058066e+00   4.047582e+00  -9.524185e-01   3.950428e+00  -1.049572e+00   4.039446e+00  -9.605539e-01   3.988748e+00  -1.011252e+00
9.7	   3.945312e+00  -1.054688e+00   4.034305e+00  -9.656948e-01   3.960778e+00  -1.039222e+00   4.032933e+00  -9.670667e-01   3.992396e+00  -1.007604e+00
9.8	   3.952986e+00  -1.047014e+00   4.018355e+00  -9.816455e-01   3.974659e+00  -1.025341e+00   4.023247e+00  -9.767531e-01   3.996946e+00  -1.003054e+00
9.9	   3.964455e+00  -1.035545e+00   4.001192e+00  -9.988078e-01   3.991157e+00  -1.008843e+00   4.011179e+00  -9.888213e-01   4.002190e+00  -9.978096e-01
10	   3.978930e+00  -1.021070e+00   3.984311e+00  -1.015689e+00   4.009022e+00  -9.909775e-01   3.997762e+00  -1.002238e+00   4.007845e+00  -9.921553e-01
10.1	   3.995307e+00  -1.004693e+00   3.969064e+00  -1.030936e+00   4.026710e+00  -9.732904e-01   3.984147e+00  -1.015853e+00   4.013554e+00  -9.864462e-01
10.2	   4.012282e+00  -9.877185e-01   3.956542e+00  -1.043458e+00   4.042564e+00  -9.574360e-01   3.971486e+00  -1.028514e+00   4.018905e+00  -9.810949e-01
10.3	   4.028533e+00  -9.714675e-01   3.947561e+00  -1.052439e+00   4.054953e+00  -9.450475e-01   3.960847e+00  -1.039153e+00   4.023455e+00  -9.765448e-01
10.4	   4.042754e+00  -9.572464e-01   3.942668e+00  -1.057332e+00   4.062433e+00  -9.375670e-01   3.953127e+00  -1.046873e+00   4.026765e+00  -9.732350e-01
10.5	   4.053689e+00  -9.463106e-01   3.942144e+00  -1.057856e+00   4.064132e+00  -9.358681e-01   3.949012e+00  -1.050988e+00   4.028435e+00  -9.715655e-01
10.6	   4.060189e+00  -9.398112e-01   3.946007e+00  -1.053993e+00   4.059891e+00  -9.401091e-01   3.948924e+00  -1.051076e+00   4.028156e+00  -9.718439e-01
10.7	   4.061460e+00  -9.385398e-01   3.954004e+00  -1.045996e+00   4.050313e+00  -9.496869e-01   3.953005e+00  -1.046995e+00   4.025750e+00  -9.742496e-01
10.8	   4.057284e+00  -9.427160e-01   3.965642e+00  -1.034358e+00   4.036578e+00  -9.634218e-01   3.961082e+00  -1.038918e+00   4.021224e+00  -9.787757e-01
10.9	   4.048182e+00  -9.518176e-01   3.980178e+00  -1.019822e+00   4.020155e+00  -9.798452e-01   3.972679e+00  -1.027321e+00   4.014776e+00  -9.852243e-01
11	   4.035174e+00  -9.648258e-01   3.996615e+00  -1.003385e+00   4.002565e+00  -9.974350e-01   3.987031e+00  -1.012969e+00   4.006787e+00  -9.932134e-01
11.1	   4.019571e+00  -9.804287e-01   4.013731e+00  -9.862686e-01   3.985284e+00  -1.014716e+00   4.003115e+00  -9.968848e-01   3.997799e+00  -1.002201e+00
11.2	   4.002736e+00  -9.972637e-01   4.030102e+00  -9.698983e-01   3.969611e+00  -1.030389e+00   4.019620e+00  -9.803804e-01   3.988470e+00  -1.011530e+00
11.3	   3.986076e+00  -1.013924e+00   4.044246e+00  -9.557539e-01   3.956675e+00  -1.043325e+00   4.035076e+00  -9.649236e-01   3.979520e+00  -1.020480e+00
11.4	   3.970811e+00  -1.029189e+00   4.054790e+00  -9.452097e-01   3.947336e+00  -1.052664e+00   4.047977e+00  -9.520229e-01   3.971665e+00  -1.028335e+00
11.5	   3.958000e+00  -1.042000e+00   4.060693e+00  -9.393074e-01   3.942174e+00  -1.057826e+00   4.056954e+00  -9.430465e-01   3.965569e+00  -1.034431e+00
11.6	   3.948525e+00  -1.051475e+00   4.061412e+00  -9.385883e-01   3.941470e+00  -1.058530e+00   4.060921e+00  -9.390789e-01   3.961799e+00  -1.038201e+00
11.7	   3.943041e+00  -1.056959e+00   4.056850e+00  -9.431495e-01   3.945221e+00  -1.054779e+00   4.059373e+00  -9.406268e-01   3.960780e+00  -1.039220e+00
11.8	   3.941929e+00  -1.058071e+00   4.047453e+00  -9.525468e-01   3.953164e+00  -1.046836e+00   4.052457e+00  -9.475433e-01   3.962764e+00  -1.037236e+00
11.9	   3.945292e+00  -1.054708e+00   4.034126e+00  -9.658740e-01   3.964743e+00  -1.035257e+00   4.040941e+00  -9.590591e-01   3.967801e+00  -1.032199e+00
12	   3.952969e+00  -1.047031e+00   4.018158e+00  -9.818419e-01   3.979169e+00  -1.020831e+00   4.026026e+00  -9.739742e-01   3.975724e+00  -1.024276e+00
12.1	   3.964456e+00  -1.035544e+00   4.001041e+00  -9.989591e-01   3.995424e+00  -1.004576e+00   4.009131e+00  -9.908688e-01   3.986129e+00  -1.013871e+00
12.2	   3.978943e+00  -1.021057e+00   3.984246e+00  -1.015754e+00   4.012317e+00  -9.876832e-01   3.991719e+00  -1.008281e+00   3.998383e+00  -1.001617e+00
12.3	   3.995316e+00  -1.004684e+00   3.969085e+00  -1.030915e+00   4.028565e+00  -9.714348e-01   3.975201e+00  -1.024799e+00   4.011640e+00  -9.883604e-01
12.4	   4.012275e+00  -9.877254e-01   3.956621e+00  -1.043379e+00   4.042826e+00  -9.571735e-01   3.960830e+00  -1.039170e+00   4.024844e+00  -9.751563e-01
12.5	   4.028510e+00  -9.714895e-01   3.947663e+00  -1.052337e+00   4.053801e+00  -9.461990e-01   3.949645e+00  -1.050355e+00   4.036809e+00  -9.631910e-01
12.6	   4.042730e+00  -9.572699e-01   3.942754e+00  -1.057246e+00   4.060367e+00  -9.396327e-01   3.942430e+00  -1.057570e+00   4.046303e+00  -9.536971e-01
12.7	   4.053679e+00  -9.463209e-01   3.942191e+00  -1.057809e+00   4.061764e+00  -9.382360e-01   3.939715e+00  -1.060285e+00   4.052189e+00  -9.478108e-01
12.8	   4.060195e+00  -9.398045e-01   3.946025e+00  -1.053975e+00   4.057767e+00  -9.422328e-01   3.941749e+00  -1.058251e+00   4.053601e+00  -9.463989e-01
12.9	   4.061476e+00  -9.385241e-01   3.954017e+00  -1.045983e+00   4.048801e+00  -9.511991e-01   3.948455e+00  -1.051545e+00   4.050148e+00  -9.498525e-01
13	   4.057298e+00  -9.427021e-01   3.965681e+00  -1.034319e+00   4.035798e+00  -9.642023e-01   3.959425e+00  -1.040575e+00   4.042004e+00  -9.579962e-01
13.1	   4.048199e+00  -9.518015e-01   3.980263e+00  -1.019737e+00   4.020049e+00  -9.799505e-01   3.973938e+00  -1.026062e+00   4.029929e+00  -9.700714e-01
13.2	   4.035189e+00  -9.648106e-01   3.996743e+00  -1.003257e+00   4.002988e+00  -9.970116e-01   3.990992e+00  -1.009008e+00   4.015081e+00  -9.849188e-01
13.3	   4.019588e+00  -9.804119e-01   4.013862e+00  -9.861381e-01   3.986036e+00  -1.013964e+00   4.009297e+00  -9.907026e-01   3.998838e+00  -1.001162e+00
13.4	   4.002759e+00  -9.972406e-01   4.030186e+00  -9.698137e-01   3.970497e+00  -1.029503e+00   4.027274e+00  -9.727261e-01   3.982632e+00  -1.017368e+00
13.5	   3.986102e+00  -1.013898e+00   4.044254e+00  -9.557457e-01   3.957494e+00  -1.042506e+00   4.043247e+00  -9.567533e-01   3.967835e+00  -1.032165e+00
13.6	   3.970836e+00  -1.029164e+00   4.054744e+00  -9.452564e-01   3.947924e+00  -1.052076e+00   4.055576e+00  -9.444240e-01   3.955634e+00  -1.044366e+00
13.7	   3.958018e+00  -1.041982e+00   4.060631e+00  -9.393693e-01   3.942439e+00  -1.057561e+00   4.062905e+00  -9.370952e-01   3.946978e+00  -1.053022e+00
13.8	   3.948539e+00  -1.051461e+00   4.061363e+00  -9.386370e-01   3.941429e+00  -1.058571e+00   4.064434e+00  -9.355655e-01   3.942543e+00  -1.057457e+00
13.9	   3.943050e+00  -1.056950e+00   4.056803e+00  -9.431965e-01   3.944967e+00  -1.055033e+00   4.060025e+00  -9.399754e-01   3.942700e+00  -1.057300e+00
14	   3.941935e+00  -1.058065e+00   4.047363e+00  -9.526372e-01   3.952792e+00  -1.047208e+00   4.050374e+00  -9.496258e-01   3.947528e+00  -1.052472e+00
14.1	   3.945293e+00  -1.054707e+00   4.033997e+00  -9.660033e-01   3.964337e+00  -1.035663e+00   4.036721e+00  -9.632791e-01   3.956738e+00  -1.043262e+00
14.2	   3.952955e+00  -1.047045e+00   4.018026e+00  -9.819744e-01   3.978821e+00  -1.021179e+00   4.020512e+00  -9.794877e-01   3.969730e+00  -1.030270e+00
14.3	   3.964435e+00  -1.035565e+00   4.000937e+00  -9.990629e-01   3.995221e+00  -1.004779e+00   4.003226e+00  -9.967740e-01   3.985610e+00  -1.014390e+00
14.4	   3.978923e+00  -1.021077e+00   3.984187e+00  -1.015813e+00   4.012300e+00  -9.877004e-01   3.986265e+00  -1.013735e+00   4.003190e+00  -9.968104e-01
14.5	   3.995302e+00  -1.004698e+00   3.969062e+00  -1.030938e+00   4.028709e+00  -9.712912e-01   3.970872e+00  -1.029128e+00   4.021053e+00  -9.789472e-01
14.6	   4.012272e+00  -9.877282e-01   3.956612e+00  -1.043388e+00   4.043066e+00  -9.569335e-01   3.958080e+00  -1.041920e+00   4.037591e+00  -9.624092e-01
14.7	   4.028518e+00  -9.714817e-01   3.947644e+00  -1.052356e+00   4.054042e+00  -9.459584e-01   3.948681e+00  -1.051319e+00   4.051233e+00  -9.487668e-01
14.8	   4.042743e+00  -9.572573e-01   3.942737e+00  -1.057263e+00   4.060561e+00  -9.394395e-01   3.943221e+00  -1.056779e+00   4.060515e+00  -9.394854e-01
14.9	   4.053694e+00  -9.463065e-01   3.942192e+00  -1.057808e+00   4.061886e+00  -9.381138e-01   3.942006e+00  -1.057994e+00   4.064404e+00  -9.355959e-01
15	   4.060203e+00  -9.397966e-01   3.946046e+00  -1.053954e+00   4.057786e+00  -9.422144e-01   3.945127e+00  -1.054873e+00   4.062405e+00  -9.375953e-01
15.1	   4.061469e+00  -9.385306e-01   3.954046e+00  -1.045954e+00   4.048699e+00  -9.513009e-01   3.952388e+00  -1.047612e+00   4.054771e+00  -9.452287e-01
15.2	   4.057289e+00  -9.427111e-01   3.965712e+00  -1.034288e+00   4.035571e+00  -9.644288e-01   3.963328e+00  -1.036672e+00   4.042440e+00  -9.575603e-01
15.3	   4.048170e+00  -9.518297e-01   3.980295e+00  -1.019705e+00   4.019702e+00  -9.802977e-01   3.977264e+00  -1.022736e+00   4.026708e+00  -9.732918e-01
15.4	   4.035146e+00  -9.648544e-01   3.996770e+00  -1.003230e+00   4.002562e+00  -9.974381e-01   3.993275e+00  -1.006725e+00   4.009064e+00  -9.909360e-01
15.5	   4.019542e+00  -9.804582e-01   4.013878e+00  -9.861215e-01   3.985616e+00  -1.014384e+00   4.010219e+00  -9.897809e-01   3.991049e+00  -1.008951e+00
15.6	   4.002713e+00  -9.972871e-01   4.030175e+00  -9.698246e-01   3.970187e+00  -1.029813e+00   4.026771e+00  -9.732285e-01   3.974114e+00  -1.025886e+00
15.7	   3.986053e+00  -1.013947e+00   4.044214e+00  -9.557862e-01   3.957383e+00  -1.042617e+00   4.041521e+00  -9.584792e-01   3.959518e+00  -1.040482e+00
15.8	   3.970788e+00  -1.029212e+00   4.054693e+00  -9.453074e-01   3.948038e+00  -1.051962e+00   4.053072e+00  -9.469282e-01   3.948305e+00  -1.051695e+00
15.9	   3.957972e+00  -1.042028e+00   4.060613e+00  -9.393874e-01   3.942728e+00  -1.057272e+00   4.060257e+00  -9.397426e-01   3.941221e+00  -1.058779e+00
16	   3.948496e+00  -1.051504e+00   4.061368e+00  -9.386316e-01   3.941787e+00  -1.058213e+00   4.062246e+00  -9.377536e-01   3.938754e+00  -1.061246e+00
16.1	   3.943017e+00  -1.056983e+00   4.056777e+00  -9.432228e-01   3.945273e+00  -1.054727e+00   4.058804e+00  -9.411960e-01   3.941097e+00  -1.058903e+00
16.2	   3.941913e+00  -1.058087e+00   4.047294e+00  -9.527063e-01   3.952967e+00  -1.047033e+00   4.050283e+00  -9.497166e-01   3.948129e+00  -1.051871e+00
16.3	   3.945283e+00  -1.054717e+00   4.033902e+00  -9.660979e-01   3.964395e+00  -1.035605e+00   4.037564e+00  -9.624355e-01   3.959379e+00  -1.040621e+00
16.4	   3.952947e+00  -1.047053e+00   4.017931e+00  -9.820688e-01   3.978824e+00  -1.021176e+00   4.021899e+00  -9.781009e-01   3.974072e+00  -1.025928e+00
16.5	   3.964427e+00  -1.035573e+00   4.000865e+00  -9.991353e-01   3.995243e+00  -1.004757e+00   4.004730e+00  -9.952704e-01   3.991170e+00  -1.008830e+00
16.6	   3.978920e+00  -1.021080e+00   3.984151e+00  -1.015849e+00   4.012421e+00  -9.875786e-01   3.987518e+00  -1.012482e+00   4.009349e+00  -9.906508e-01
16.7	   3.995308e+00  -1.004692e+00   3.969069e+00  -1.030931e+00   4.028942e+00  -9.710582e-01   3.971636e+00  -1.028364e+00   4.027071e+00  -9.729295e-01
16.8	   4.012285e+00  -9.877148e-01   3.956661e+00  -1.043339e+00   4.043342e+00  -9.566576e-01   3.958264e+00  -1.041736e+00   4.042733e+00  -9.572673e-01
16.9	   4.028539e+00  -9.714611e-01   3.947721e+00  -1.052279e+00   4.054268e+00  -9.457316e-01   3.948329e+00  -1.051671e+00   4.054796e+00  -9.452040e-01
17	   4.042765e+00  -9.572352e-01   3.942822e+00  -1.057178e+00   4.060671e+00  -9.393287e-01   3.942489e+00  -1.057511e+00   4.061968e+00  -9.380320e-01
17.1	   4.053714e+00  -9.462859e-01   3.942272e+00  -1.057728e+00   4.061874e+00  -9.381256e-01   3.941108e+00  -1.058892e+00   4.063550e+00  -9.364496e-01
17.2	   4.060227e+00  -9.397729e-01   3.946118e+00  -1.053882e+00   4.057708e+00  -9.422916e-01   3.944272e+00  -1.055728e+00   4.059449e+00  -9.405515e-01
17.3	   4.061499e+00  -9.385013e-01   3.954127e+00  -1.045873e+00   4.048585e+00  -9.514146e-01   3.951753e+00  -1.048247e+00   4.050283e+00  -9.497172e-01
17.4	   4.057329e+00  -9.426708e-01   3.965819e+00  -1.034181e+00   4.035439e+00  -9.645614e-01   3.963027e+00  -1.036973e+00   4.037198e+00  -9.628015e-01
17.5	   4.048223e+00  -9.517767e-01   3.980426e+00  -1.019574e+00   4.019562e+00  -9.804376e-01   3.977313e+00  -1.022687e+00   4.021560e+00  -9.784399e-01
17.6	   4.035205e+00  -9.647949e-01   3.996908e+00  -1.003092e+00   4.002431e+00  -9.975691e-01   3.993611e+00  -1.006389e+00   4.004751e+00  -9.952487e-01
17.7	   4.019594e+00  -9.804062e-01   4.014000e+00  -9.860002e-01   3.985508e+00  -1.014492e+00   4.010735e+00  -9.892651e-01   3.988100e+00  -1.011900e+00
17.8	   4.002754e+00  -9.972457e-01   4.030254e+00  -9.697459e-01   3.970100e+00  -1.029900e+00   4.027357e+00  -9.726431e-01   3.972804e+00  -1.027196e+00
17.9	   3.986088e+00  -1.013912e+00   4.044250e+00  -9.557503e-01   3.957302e+00  -1.042698e+00   4.042040e+00  -9.579598e-01   3.959877e+00  -1.040123e+00
18	   3.970818e+00  -1.029182e+00   4.054708e+00  -9.452918e-01   3.947961e+00  -1.052039e+00   4.053416e+00  -9.465842e-01   3.950137e+00  -1.049863e+00
18.1	   3.958008e+00  -1.041992e+00   4.060618e+00  -9.393821e-01   3.942666e+00  -1.057334e+00   4.060376e+00  -9.396241e-01   3.944170e+00  -1.055830e+00
18.2	   3.948539e+00  -1.051461e+00   4.061389e+00  -9.386106e-01   3.941746e+00  -1.058254e+00   4.062140e+00  -9.378603e-01   3.942350e+00  -1.057650e+00
18.3	   3.943067e+00  -1.056933e+00   4.056774e+00  -9.432257e-01   3.945257e+00  -1.054743e+00   4.058472e+00  -9.415277e-01   3.944799e+00  -1.055201e+00
18.4	   3.941967e+00  -1.058033e+00   4.047247e+00  -9.527527e-01   3.952984e+00  -1.047016e+00   4.049777e+00  -9.502231e-01   3.951391e+00  -1.048609e+00
18.5	   3.945340e+00  -1.054660e+00   4.033818e+00  -9.661820e-01   3.964452e+00  -1.035548e+00   4.036980e+00  -9.630195e-01   3.961759e+00  -1.038241e+00
18.6	   3.953007e+00  -1.046993e+00   4.017825e+00  -9.821745e-01   3.978916e+00  -1.021084e+00   4.021348e+00  -9.786518e-01   3.975292e+00  -1.024708e+00
18.7	   3.964477e+00  -1.035523e+00   4.000748e+00  -9.992516e-01   3.995357e+00  -1.004643e+00   4.004305e+00  -9.956952e-01   3.991127e+00  -1.008873e+00
18.8	   3.978953e+00  -1.021047e+00   3.984038e+00  -1.015962e+00   4.012517e+00  -9.874834e-01   3.987266e+00  -1.012734e+00   4.008148e+00  -9.918518e-01
18.9	   3.995324e+00  -1.004676e+00   3.968969e+00  -1.031031e+00   4.028979e+00  -9.710210e-01   3.971556e+00  -1.028444e+00   4.025037e+00  -9.749632e-01
19	   4.012283e+00  -9.877171e-01   3.956574e+00  -1.043426e+00   4.043319e+00  -9.566806e-01   3.958328e+00  -1.041672e+00   4.040363e+00  -9.596370e-01
19.1	   4.028514e+00  -9.714857e-01   3.947649e+00  -1.052351e+00   4.054224e+00  -9.457763e-01   3.948496e+00  -1.051504e+00   4.052631e+00  -9.473686e-01
19.2	   4.042733e+00  -9.572671e-01   3.942760e+00  -1.057240e+00   4.060624e+00  -9.393761e-01   3.942722e+00  -1.057278e+00   4.060516e+00  -9.394836e-01
19.3	   4.053677e+00  -9.463233e-01   3.942214e+00  -1.057786e+00   4.061833e+00  -9.381671e-01   3.941393e+00  -1.058607e+00   4.063066e+00  -9.369337e-01