           0.1	(   1.039270e+00   0.000000e+00  9.255716e-05) (   5.196352e+00   0.000000e+00  1.374028e-05) (   1.039270e+01   0.000000e+00  1.773016e-06) (   1.558906e+01   0.000000e+00  2.313033e-07) (   2.078541e+01   0.000000e+00  3.023062e-08) 
0.2	(   1.039270e+00   0.000000e+00  5.415105e-04) (   5.196352e+00   0.000000e+00  7.798323e-05) (   1.039270e+01   0.000000e+00  1.017720e-05) (   1.558906e+01   0.000000e+00  1.345140e-06) (   2.078541e+01   0.000000e+00  1.780843e-07) 
0.3	(   1.039270e+00   0.000000e+00  1.531131e-03) (   5.196352e+00   0.000000e+00  2.170804e-04) (   1.039270e+01   0.000000e+00  2.876722e-05) (   1.558906e+01   0.000000e+00  3.865336e-06) (   2.078541e+01   0.000000e+00  5.200094e-07) 
0.4	(   1.039270e+00   0.000000e+00  3.202708e-03) (   5.196352e+00   0.000000e+00  4.521343e-04) (   1.039270e+01   0.000000e+00  6.113201e-05) (   1.558906e+01   0.000000e+00  8.384763e-06) (   2.078541e+01   0.000000e+00  1.150444e-06) 
0.5	(   1.039270e+00   0.000000e+00  5.622686e-03) (   5.196352e+00   0.000000e+00  7.980840e-04) (   1.039270e+01   0.000000e+00  1.106480e-04) (   1.558906e+01   0.000000e+00  1.555610e-05) (   2.078541e+01   0.000000e+00  2.184430e-06) 
0.6	(   1.039270e+00   0.000000e+00  8.784115e-03) (   5.196352e+00   0.000000e+00  1.266533e-03) (   1.039270e+01   0.000000e+00  1.809370e-04) (   1.558906e+01   0.000000e+00  2.617296e-05) (   2.078541e+01   0.000000e+00  3.772405e-06) 
0.7	(   1.039270e+00   0.000000e+00  1.259022e-02) (   5.196352e+00   0.000000e+00  1.865859e-03) (   1.039270e+01   0.000000e+00  2.759692e-04) (   1.558906e+01   0.000000e+00  4.120877e-05) (   2.078541e+01   0.000000e+00  6.110730e-06) 
0.8	(   1.039270e+00   0.000000e+00  1.681413e-02) (   5.196352e+00   0.000000e+00  2.596709e-03) (   1.039270e+01   0.000000e+00  3.994728e-04) (   1.558906e+01   0.000000e+00  6.175538e-05) (   2.078541e+01   0.000000e+00  9.438498e-06) 
0.9	(   1.039270e+00   0.000000e+00  2.108171e-02) (   5.196352e+00   0.000000e+00  3.451556e-03) (   1.039270e+01   0.000000e+00  5.549797e-04) (   1.558906e+01   0.000000e+00  8.906616e-05) (   2.078541e+01   0.000000e+00  1.405214e-05) 
1	(   1.039270e+00   0.000000e+00  2.485657e-02) (   5.196352e+00   0.000000e+00  4.411251e-03) (   1.039270e+01   0.000000e+00  7.451854e-04) (   1.558906e+01   0.000000e+00  1.244708e-04) (   2.078541e+01   0.000000e+00  2.029875e-05) 
1.1	(   1.039270e+00   0.000000e+00  2.744538e-02) (   5.196352e+00   0.000000e+00  5.445814e-03) (   1.039270e+01   0.000000e+00  9.720599e-04) (   1.558906e+01   0.000000e+00  1.694246e-04) (   2.078541e+01   0.000000e+00  2.859363e-05) 
1.2	(   1.039270e+00   0.000000e+00  2.824864e-02) (   5.196352e+00   0.000000e+00  6.507763e-03) (   1.039270e+01   0.000000e+00  1.235708e-03) (   1.558906e+01   0.000000e+00  2.253557e-04) (   2.078541e+01   0.000000e+00  3.940731e-05) 
1.3	(   1.039270e+00   0.000000e+00  2.647291e-02) (   5.196352e+00   0.000000e+00  7.545795e-03) (   1.039270e+01   0.000000e+00  1.535816e-03) (   1.558906e+01   0.000000e+00  2.938453e-04) (   2.078541e+01   0.000000e+00  5.329674e-05) 
1.4	(   1.039270e+00   0.000000e+00  2.135538e-02) (   5.196352e+00   0.000000e+00  8.500407e-03) (   1.039270e+01   0.000000e+00  1.870805e-03) (   1.558906e+01   0.000000e+00  3.765056e-04) (   2.078541e+01   0.000000e+00  7.089795e-05) 
1.5	(   1.039270e+00   0.000000e+00  1.236783e-02) (   5.196352e+00   0.000000e+00  9.284883e-03) (   1.039270e+01   0.000000e+00  2.235320e-03) (   1.558906e+01   0.000000e+00  4.746274e-04) (   2.078541e+01   0.000000e+00  9.288781e-05) 
1.6	(   1.039270e+00   0.000000e+00 -3.653069e-04) (   5.196352e+00   0.000000e+00  9.788493e-03) (   1.039270e+01   0.000000e+00  2.619418e-03) (   1.558906e+01   0.000000e+00  5.890119e-04) (   2.078541e+01   0.000000e+00  1.199659e-04) 
1.7	(   1.039270e+00   0.000000e+00 -1.599362e-02) (   5.196352e+00   0.000000e+00  9.910404e-03) (   1.039270e+01   0.000000e+00  3.010342e-03) (   1.558906e+01   0.000000e+00  7.201377e-04) (   2.078541e+01   0.000000e+00  1.528827e-04) 
1.8	(   1.039270e+00   0.000000e+00 -3.324238e-02) (   5.196352e+00   0.000000e+00  9.586649e-03) (   1.039270e+01   0.000000e+00  3.401178e-03) (   1.558906e+01   0.000000e+00  8.690936e-04) (   2.078541e+01   0.000000e+00  1.925371e-04) 
1.9	(   1.039270e+00   0.000000e+00 -5.090348e-02) (   5.196352e+00   0.000000e+00  8.765189e-03) (   1.039270e+01   0.000000e+00  3.782686e-03) (   1.558906e+01   0.000000e+00  1.036631e-03) (   2.078541e+01   0.000000e+00  2.398943e-04) 
2	(   1.039270e+00   0.000000e+00 -6.729373e-02) (   5.196352e+00   0.000000e+00  7.389180e-03) (   1.039270e+01   0.000000e+00  4.140186e-03) (   1.558906e+01   0.000000e+00  1.222449e-03) (   2.078541e+01   0.000000e+00  2.958348e-04) 
2.1	(   1.039270e+00   0.000000e+00 -8.062965e-02) (   5.196352e+00   0.000000e+00  5.366725e-03) (   1.039270e+01   0.000000e+00  4.449592e-03) (   1.558906e+01   0.000000e+00  1.424848e-03) (   2.078541e+01   0.000000e+00  3.611451e-04) 
2.2	(   1.039270e+00   0.000000e+00 -8.957622e-02) (   5.196352e+00   0.000000e+00  2.606867e-03) (   1.039270e+01   0.000000e+00  4.682362e-03) (   1.558906e+01   0.000000e+00  1.640863e-03) (   2.078541e+01   0.000000e+00  4.364856e-04) 
2.3	(   1.039270e+00   0.000000e+00 -9.298419e-02) (   5.196352e+00   0.000000e+00 -9.844929e-04) (   1.039270e+01   0.000000e+00  4.807148e-03) (   1.558906e+01   0.000000e+00  1.865898e-03) (   2.078541e+01   0.000000e+00  5.223119e-04) 
2.4	(   1.039270e+00   0.000000e+00 -8.930537e-02) (   5.196352e+00   0.000000e+00 -5.357248e-03) (   1.039270e+01   0.000000e+00  4.805788e-03) (   1.558906e+01   0.000000e+00  2.095795e-03) (   2.078541e+01   0.000000e+00  6.191010e-04) 
2.5	(   1.039270e+00   0.000000e+00 -7.747036e-02) (   5.196352e+00   0.000000e+00 -1.031365e-02) (   1.039270e+01   0.000000e+00  4.657377e-03) (   1.558906e+01   0.000000e+00  2.326764e-03) (   2.078541e+01   0.000000e+00  7.273055e-04) 
2.6	(   1.039270e+00   0.000000e+00 -5.865414e-02) (   5.196352e+00   0.000000e+00 -1.576084e-02) (   1.039270e+01   0.000000e+00  4.330150e-03) (   1.558906e+01   0.000000e+00  2.551076e-03) (   2.078541e+01   0.000000e+00  8.467432e-04) 
2.7	(   1.039270e+00   0.000000e+00 -3.539133e-02) (   5.196352e+00   0.000000e+00 -2.161703e-02) (   1.039270e+01   0.000000e+00  3.785188e-03) (   1.558906e+01   0.000000e+00  2.758295e-03) (   2.078541e+01   0.000000e+00  9.767169e-04) 
2.8	(   1.039270e+00   0.000000e+00 -9.361821e-03) (   5.196352e+00   0.000000e+00 -2.777191e-02) (   1.039270e+01   0.000000e+00  2.988801e-03) (   1.558906e+01   0.000000e+00  2.936230e-03) (   2.078541e+01   0.000000e+00  1.116041e-03) 
2.9	(   1.039270e+00   0.000000e+00  1.825545e-02) (   5.196352e+00   0.000000e+00 -3.389964e-02) (   1.039270e+01   0.000000e+00  1.914182e-03) (   1.558906e+01   0.000000e+00  3.072350e-03) (   2.078541e+01   0.000000e+00  1.263086e-03) 
3	(   1.039270e+00   0.000000e+00  4.623399e-02) (   5.196352e+00   0.000000e+00 -3.953969e-02) (   1.039270e+01   0.000000e+00  5.552900e-04) (   1.558906e+01   0.000000e+00  3.156006e-03) (   2.078541e+01   0.000000e+00  1.415751e-03) 
3.1	(   1.039270e+00   0.000000e+00  7.149917e-02) (   5.196352e+00   0.000000e+00 -4.433448e-02) (   1.039270e+01   0.000000e+00 -1.109816e-03) (   1.558906e+01   0.000000e+00  3.173008e-03) (   2.078541e+01   0.000000e+00  1.570869e-03) 
3.2	(   1.039270e+00   0.000000e+00  9.260817e-02) (   5.196352e+00   0.000000e+00 -4.779201e-02) (   1.039270e+01   0.000000e+00 -3.075708e-03) (   1.558906e+01   0.000000e+00  3.104445e-03) (   2.078541e+01   0.000000e+00  1.724731e-03) 
3.3	(   1.039270e+00   0.000000e+00  1.090121e-01) (   5.196352e+00   0.000000e+00 -4.937536e-02) (   1.039270e+01   0.000000e+00 -5.312471e-03) (   1.558906e+01   0.000000e+00  2.934417e-03) (   2.078541e+01   0.000000e+00  1.872973e-03) 
3.4	(   1.039270e+00   0.000000e+00  1.201149e-01) (   5.196352e+00   0.000000e+00 -4.856648e-02) (   1.039270e+01   0.000000e+00 -7.781065e-03) (   1.558906e+01   0.000000e+00  2.647606e-03) (   2.078541e+01   0.000000e+00  2.010192e-03) 
3.5	(   1.039270e+00   0.000000e+00  1.253807e-01) (   5.196352e+00   0.000000e+00 -4.479328e-02) (   1.039270e+01   0.000000e+00 -1.043031e-02) (   1.558906e+01   0.000000e+00  2.229127e-03) (   2.078541e+01   0.000000e+00  2.129737e-03) 
3.6	(   1.039270e+00   0.000000e+00  1.245405e-01) (   5.196352e+00   0.000000e+00 -3.780105e-02) (   1.039270e+01   0.000000e+00 -1.319884e-02) (   1.558906e+01   0.000000e+00  1.665662e-03) (   2.078541e+01   0.000000e+00  2.224639e-03) 
3.7	(   1.039270e+00   0.000000e+00  1.164564e-01) (   5.196352e+00   0.000000e+00 -2.756981e-02) (   1.039270e+01   0.000000e+00 -1.602009e-02) (   1.558906e+01   0.000000e+00  9.450131e-04) (   2.078541e+01   0.000000e+00  2.287642e-03) 
3.8	(   1.039270e+00   0.000000e+00  1.014477e-01) (   5.196352e+00   0.000000e+00 -1.426342e-02) (   1.039270e+01   0.000000e+00 -1.876660e-02) (   1.558906e+01   0.000000e+00  6.053929e-05) (   2.078541e+01   0.000000e+00  2.311086e-03) 
3.9	(   1.039270e+00   0.000000e+00  7.996709e-02) (   5.196352e+00   0.000000e+00  1.670505e-03) (   1.039270e+01   0.000000e+00 -2.130837e-02) (   1.558906e+01   0.000000e+00 -9.908322e-04) (   2.078541e+01   0.000000e+00  2.285947e-03) 
4	(   1.039270e+00   0.000000e+00  5.178666e-02) (   5.196352e+00   0.000000e+00  1.939898e-02) (   1.039270e+01   0.000000e+00 -2.350876e-02) (   1.558906e+01   0.000000e+00 -2.207327e-03) (   2.078541e+01   0.000000e+00  2.199689e-03) 
4.1	(   1.039270e+00   0.000000e+00  1.687271e-02) (   5.196352e+00   0.000000e+00  3.777026e-02) (   1.039270e+01   0.000000e+00 -2.524232e-02) (   1.558906e+01   0.000000e+00 -3.582875e-03) (   2.078541e+01   0.000000e+00  2.042338e-03) 
4.2	(   1.039270e+00   0.000000e+00 -2.237654e-02) (   5.196352e+00   0.000000e+00  5.542176e-02) (   1.039270e+01   0.000000e+00 -2.636503e-02) (   1.558906e+01   0.000000e+00 -5.100611e-03) (   2.078541e+01   0.000000e+00  1.804067e-03) 
4.3	(   1.039270e+00   0.000000e+00 -6.502357e-02) (   5.196352e+00   0.000000e+00  7.085467e-02) (   1.039270e+01   0.000000e+00 -2.677556e-02) (   1.558906e+01   0.000000e+00 -6.740319e-03) (   2.078541e+01   0.000000e+00  1.475309e-03) 
4.4	(   1.039270e+00   0.000000e+00 -1.092224e-01) (   5.196352e+00   0.000000e+00  8.299815e-02) (   1.039270e+01   0.000000e+00 -2.631590e-02) (   1.558906e+01   0.000000e+00 -8.470274e-03) (   2.078541e+01   0.000000e+00  1.048066e-03) 
4.5	(   1.039270e+00   0.000000e+00 -1.506613e-01) (   5.196352e+00   0.000000e+00  9.100874e-02) (   1.039270e+01   0.000000e+00 -2.484335e-02) (   1.558906e+01   0.000000e+00 -1.026150e-02) (   2.078541e+01   0.000000e+00  5.158868e-04) 
4.6	(   1.039270e+00   0.000000e+00 -1.865893e-01) (   5.196352e+00   0.000000e+00  9.401175e-02) (   1.039270e+01   0.000000e+00 -2.230214e-02) (   1.558906e+01   0.000000e+00 -1.205499e-02) (   2.078541e+01   0.000000e+00 -1.262852e-04) 
4.7	(   1.039270e+00   0.000000e+00 -2.186605e-01) (   5.196352e+00   0.000000e+00  9.120326e-02) (   1.039270e+01   0.000000e+00 -1.867261e-02) (   1.558906e+01   0.000000e+00 -1.379442e-02) (   2.078541e+01   0.000000e+00 -8.811159e-04) 
4.8	(   1.039270e+00   0.000000e+00 -2.360896e-01) (   5.196352e+00   0.000000e+00  8.174849e-02) (   1.039270e+01   0.000000e+00 -1.397980e-02) (   1.558906e+01   0.000000e+00 -1.541545e-02) (   2.078541e+01   0.000000e+00 -1.748363e-03) 
4.9	(   1.039270e+00   0.000000e+00 -2.289008e-01) (   5.196352e+00   0.000000e+00  6.565854e-02) (   1.039270e+01   0.000000e+00 -8.296510e-03) (   1.558906e+01   0.000000e+00 -1.684439e-02) (   2.078541e+01   0.000000e+00 -2.724139e-03) 
5	(   1.039270e+00   0.000000e+00 -1.969403e-01) (   5.196352e+00   0.000000e+00  4.336632e-02) (   1.039270e+01   0.000000e+00 -1.742286e-03) (   1.558906e+01   0.000000e+00 -1.800783e-02) (   2.078541e+01   0.000000e+00 -3.799937e-03) 
5.1	(   1.039270e+00   0.000000e+00 -1.602689e-01) (   5.196352e+00   0.000000e+00  1.533580e-02) (   1.039270e+01   0.000000e+00  5.444723e-03) (   1.558906e+01   0.000000e+00 -1.884522e-02) (   2.078541e+01   0.000000e+00 -4.964452e-03) 
5.2	(   1.039270e+00   0.000000e+00 -1.126216e-01) (   5.196352e+00   0.000000e+00 -1.712633e-02) (   1.039270e+01   0.000000e+00  1.297785e-02) (   1.558906e+01   0.000000e+00 -1.929325e-02) (   2.078541e+01   0.000000e+00 -6.201405e-03) 
5.3	(   1.039270e+00   0.000000e+00 -5.653754e-02) (   5.196352e+00   0.000000e+00 -5.216782e-02) (   1.039270e+01   0.000000e+00  2.050462e-02) (   1.558906e+01   0.000000e+00 -1.930337e-02) (   2.078541e+01   0.000000e+00 -7.497808e-03) 
5.4	(   1.039270e+00   0.000000e+00 -2.400188e-04) (   5.196352e+00   0.000000e+00 -8.837280e-02) (   1.039270e+01   0.000000e+00  2.760251e-02) (   1.558906e+01   0.000000e+00 -1.880213e-02) (   2.078541e+01   0.000000e+00 -8.822131e-03) 
5.5	(   1.039270e+00   0.000000e+00  5.410205e-02) (   5.196352e+00   0.000000e+00 -1.225438e-01) (   1.039270e+01   0.000000e+00  3.381532e-02) (   1.558906e+01   0.000000e+00 -1.776057e-02) (   2.078541e+01   0.000000e+00 -1.014048e-02) 
5.6	(   1.039270e+00   0.000000e+00  1.031194e-01) (   5.196352e+00   0.000000e+00 -1.514438e-01) (   1.039270e+01   0.000000e+00  3.865240e-02) (   1.558906e+01   0.000000e+00 -1.616105e-02) (   2.078541e+01   0.000000e+00 -1.141764e-02) 
5.7	(   1.039270e+00   0.000000e+00  1.454165e-01) (   5.196352e+00   0.000000e+00 -1.727798e-01) (   1.039270e+01   0.000000e+00  4.170130e-02) (   1.558906e+01   0.000000e+00 -1.400810e-02) (   2.078541e+01   0.000000e+00 -1.261417e-02) 
5.8	(   1.039270e+00   0.000000e+00  1.772267e-01) (   5.196352e+00   0.000000e+00 -1.843240e-01) (   1.039270e+01   0.000000e+00  4.273451e-02) (   1.558906e+01   0.000000e+00 -1.132351e-02) (   2.078541e+01   0.000000e+00 -1.368568e-02) 
5.9	(   1.039270e+00   0.000000e+00  1.993947e-01) (   5.196352e+00   0.000000e+00 -1.850428e-01) (   1.039270e+01   0.000000e+00  4.131776e-02) (   1.558906e+01   0.000000e+00 -8.162381e-03) (   2.078541e+01   0.000000e+00 -1.459033e-02) 
6	(   1.039270e+00   0.000000e+00  2.084434e-01) (   5.196352e+00   0.000000e+00 -1.732217e-01) (   1.039270e+01   0.000000e+00  3.703628e-02) (   1.558906e+01   0.000000e+00 -4.610585e-03) (   2.078541e+01   0.000000e+00 -1.529205e-02) 
6.1	(   1.039270e+00   0.000000e+00  2.056910e-01) (   5.196352e+00   0.000000e+00 -1.487091e-01) (   1.039270e+01   0.000000e+00  2.976922e-02) (   1.558906e+01   0.000000e+00 -7.735809e-04) (   2.078541e+01   0.000000e+00 -1.575295e-02) 
6.2	(   1.039270e+00   0.000000e+00  1.953947e-01) (   5.196352e+00   0.000000e+00 -1.140372e-01) (   1.039270e+01   0.000000e+00  1.946137e-02) (   1.558906e+01   0.000000e+00  3.211029e-03) (   2.078541e+01   0.000000e+00 -1.594012e-02) 
6.3	(   1.039270e+00   0.000000e+00  1.695642e-01) (   5.196352e+00   0.000000e+00 -7.233586e-02) (   1.039270e+01   0.000000e+00  6.179402e-03) (   1.558906e+01   0.000000e+00  7.176377e-03) (   2.078541e+01   0.000000e+00 -1.582736e-02) 
6.4	(   1.039270e+00   0.000000e+00  1.369703e-01) (   5.196352e+00   0.000000e+00 -2.670290e-02) (   1.039270e+01   0.000000e+00 -9.784570e-03) (   1.558906e+01   0.000000e+00  1.093795e-02) (   2.078541e+01   0.000000e+00 -1.538010e-02) 
6.5	(   1.039270e+00   0.000000e+00  9.563541e-02) (   5.196352e+00   0.000000e+00  1.929312e-02) (   1.039270e+01   0.000000e+00 -2.792629e-02) (   1.558906e+01   0.000000e+00  1.428980e-02) (   2.078541e+01   0.000000e+00 -1.459141e-02) 
6.6	(   1.039270e+00   0.000000e+00  4.410364e-02) (   5.196352e+00   0.000000e+00  6.349942e-02) (   1.039270e+01   0.000000e+00 -4.752931e-02) (   1.558906e+01   0.000000e+00  1.701378e-02) (   2.078541e+01   0.000000e+00 -1.346008e-02) 
6.7	(   1.039270e+00   0.000000e+00 -1.201001e-02) (   5.196352e+00   0.000000e+00  1.033807e-01) (   1.039270e+01   0.000000e+00 -6.790122e-02) (   1.558906e+01   0.000000e+00  1.892109e-02) (   2.078541e+01   0.000000e+00 -1.199718e-02) 
6.8	(   1.039270e+00   0.000000e+00 -6.634621e-02) (   5.196352e+00   0.000000e+00  1.370547e-01) (   1.039270e+01   0.000000e+00 -8.781054e-02) (   1.558906e+01   0.000000e+00  1.984026e-02) (   2.078541e+01   0.000000e+00 -1.022795e-02) 
6.9	(   1.039270e+00   0.000000e+00 -1.206962e-01) (   5.196352e+00   0.000000e+00  1.628353e-01) (   1.039270e+01   0.000000e+00 -1.057372e-01) (   1.558906e+01   0.000000e+00  1.961482e-02) (   2.078541e+01   0.000000e+00 -8.192725e-03) 
7	(   1.039270e+00   0.000000e+00 -1.662921e-01) (   5.196352e+00   0.000000e+00  1.798815e-01) (   1.039270e+01   0.000000e+00 -1.200550e-01) (   1.558906e+01   0.000000e+00  1.800451e-02) (   2.078541e+01   0.000000e+00 -5.946763e-03) 
7.1	(   1.039270e+00   0.000000e+00 -2.015735e-01) (   5.196352e+00   0.000000e+00  1.875337e-01) (   1.039270e+01   0.000000e+00 -1.293058e-01) (   1.558906e+01   0.000000e+00  1.491066e-02) (   2.078541e+01   0.000000e+00 -3.561106e-03) 
7.2	(   1.039270e+00   0.000000e+00 -2.360381e-01) (   5.196352e+00   0.000000e+00  1.857938e-01) (   1.039270e+01   0.000000e+00 -1.322044e-01) (   1.558906e+01   0.000000e+00  1.027559e-02) (   2.078541e+01   0.000000e+00 -1.120712e-03) 
7.3	(   1.039270e+00   0.000000e+00 -2.667012e-01) (   5.196352e+00   0.000000e+00  1.736607e-01) (   1.039270e+01   0.000000e+00 -1.271788e-01) (   1.558906e+01   0.000000e+00  4.105040e-03) (   2.078541e+01   0.000000e+00  1.276921e-03) 
7.4	(   1.039270e+00   0.000000e+00 -2.685980e-01) (   5.196352e+00   0.000000e+00  1.510803e-01) (   1.039270e+01   0.000000e+00 -1.135249e-01) (   1.558906e+01   0.000000e+00 -3.527744e-03) (   2.078541e+01   0.000000e+00  3.522240e-03) 
7.5	(   1.039270e+00   0.000000e+00 -2.385188e-01) (   5.196352e+00   0.000000e+00  1.186438e-01) (   1.039270e+01   0.000000e+00 -9.168772e-02) (   1.558906e+01   0.000000e+00 -1.246118e-02) (   2.078541e+01   0.000000e+00  5.495056e-03) 
7.6	(   1.039270e+00   0.000000e+00 -2.052190e-01) (   5.196352e+00   0.000000e+00  7.768094e-02) (   1.039270e+01   0.000000e+00 -6.283055e-02) (   1.558906e+01   0.000000e+00 -2.243861e-02) (   2.078541e+01   0.000000e+00  7.074170e-03) 
7.7	(   1.039270e+00   0.000000e+00 -1.647212e-01) (   5.196352e+00   0.000000e+00  2.840972e-02) (   1.039270e+01   0.000000e+00 -2.897815e-02) (   1.558906e+01   0.000000e+00 -3.312412e-02) (   2.078541e+01   0.000000e+00  8.155508e-03) 
7.8	(   1.039270e+00   0.000000e+00 -9.889313e-02) (   5.196352e+00   0.000000e+00 -2.692825e-02) (   1.039270e+01   0.000000e+00  6.958594e-03) (   1.558906e+01   0.000000e+00 -4.413127e-02) (   2.078541e+01   0.000000e+00  8.643374e-03) 
7.9	(   1.039270e+00   0.000000e+00 -3.463400e-02) (   5.196352e+00   0.000000e+00 -8.602032e-02) (   1.039270e+01   0.000000e+00  4.304845e-02) (   1.558906e+01   0.000000e+00 -5.497360e-02) (   2.078541e+01   0.000000e+00  8.445991e-03) 
8	(   1.039270e+00   0.000000e+00  2.391131e-02) (   5.196352e+00   0.000000e+00 -1.453022e-01) (   1.039270e+01   0.000000e+00  7.646957e-02) (   1.558906e+01   0.000000e+00 -6.497570e-02) (   2.078541e+01   0.000000e+00  7.424183e-03) 
8.1	(   1.039270e+00   0.000000e+00  7.435961e-02) (   5.196352e+00   0.000000e+00 -1.994296e-01) (   1.039270e+01   0.000000e+00  1.055902e-01) (   1.558906e+01   0.000000e+00 -7.351485e-02) (   2.078541e+01   0.000000e+00  5.528968e-03) 
8.2	(   1.039270e+00   0.000000e+00  1.162374e-01) (   5.196352e+00   0.000000e+00 -2.441606e-01) (   1.039270e+01   0.000000e+00  1.289209e-01) (   1.558906e+01   0.000000e+00 -7.996166e-02) (   2.078541e+01   0.000000e+00  2.727835e-03) 
8.3	(   1.039270e+00   0.000000e+00  1.530332e-01) (   5.196352e+00   0.000000e+00 -2.688807e-01) (   1.039270e+01   0.000000e+00  1.452160e-01) (   1.558906e+01   0.000000e+00 -8.373253e-02) (   2.078541e+01   0.000000e+00 -9.785507e-04) 
8.4	(   1.039270e+00   0.000000e+00  1.815386e-01) (   5.196352e+00   0.000000e+00 -2.702096e-01) (   1.039270e+01   0.000000e+00  1.536363e-01) (   1.558906e+01   0.000000e+00 -8.437422e-02) (   2.078541e+01   0.000000e+00 -5.550757e-03) 
8.5	(   1.039270e+00   0.000000e+00  1.953630e-01) (   5.196352e+00   0.000000e+00 -2.485252e-01) (   1.039270e+01   0.000000e+00  1.538691e-01) (   1.558906e+01   0.000000e+00 -8.121860e-02) (   2.078541e+01   0.000000e+00 -1.090602e-02) 
8.6	(   1.039270e+00   0.000000e+00  1.984990e-01) (   5.196352e+00   0.000000e+00 -2.106774e-01) (   1.039270e+01   0.000000e+00  1.449060e-01) (   1.558906e+01   0.000000e+00 -7.405343e-02) (   2.078541e+01   0.000000e+00 -1.691482e-02) 
8.7	(   1.039270e+00   0.000000e+00  1.927344e-01) (   5.196352e+00   0.000000e+00 -1.608720e-01) (   1.039270e+01   0.000000e+00  1.267196e-01) (   1.558906e+01   0.000000e+00 -6.293571e-02) (   2.078541e+01   0.000000e+00 -2.340221e-02) 
8.8	(   1.039270e+00   0.000000e+00  1.817118e-01) (   5.196352e+00   0.000000e+00 -1.071397e-01) (   1.039270e+01   0.000000e+00  9.974765e-02) (   1.558906e+01   0.000000e+00 -4.813233e-02) (   2.078541e+01   0.000000e+00 -3.014881e-02) 
8.9	(   1.039270e+00   0.000000e+00  1.584879e-01) (   5.196352e+00   0.000000e+00 -4.953724e-02) (   1.039270e+01   0.000000e+00  6.470315e-02) (   1.558906e+01   0.000000e+00 -3.022927e-02) (   2.078541e+01   0.000000e+00 -3.692614e-02) 
9	(   1.039270e+00   0.000000e+00  1.306871e-01) (   5.196352e+00   0.000000e+00  7.844137e-03) (   1.039270e+01   0.000000e+00  2.227998e-02) (   1.558906e+01   0.000000e+00 -1.006470e-02) (   2.078541e+01   0.000000e+00 -4.344222e-02) 
9.1	(   1.039270e+00   0.000000e+00  1.017112e-01) (   5.196352e+00   0.000000e+00  6.206626e-02) (   1.039270e+01   0.000000e+00 -2.527446e-02) (   1.558906e+01   0.000000e+00  1.134065e-02) (   2.078541e+01   0.000000e+00 -4.930439e-02) 
9.2	(   1.039270e+00   0.000000e+00  5.328838e-02) (   5.196352e+00   0.000000e+00  1.098929e-01) (   1.039270e+01   0.000000e+00 -7.557640e-02) (   1.558906e+01   0.000000e+00  3.288064e-02) (   2.078541e+01   0.000000e+00 -5.416500e-02) 
9.3	(   1.039270e+00   0.000000e+00 -2.401010e-02) (   5.196352e+00   0.000000e+00  1.495526e-01) (   1.039270e+01   0.000000e+00 -1.259054e-01) (   1.558906e+01   0.000000e+00  5.324461e-02) (   2.078541e+01   0.000000e+00 -5.772859e-02) 
9.4	(   1.039270e+00   0.000000e+00 -8.367837e-02) (   5.196352e+00   0.000000e+00  1.789351e-01) (   1.039270e+01   0.000000e+00 -1.713772e-01) (   1.558906e+01   0.000000e+00  7.117423e-02) (   2.078541e+01   0.000000e+00 -5.972288e-02) 
9.5	(   1.039270e+00   0.000000e+00 -1.295220e-01) (   5.196352e+00   0.000000e+00  1.970094e-01) (   1.039270e+01   0.000000e+00 -2.091090e-01) (   1.558906e+01   0.000000e+00  8.584630e-02) (   2.078541e+01   0.000000e+00 -5.994332e-02) 
9.6	(   1.039270e+00   0.000000e+00 -1.787640e-01) (   5.196352e+00   0.000000e+00  2.042431e-01) (   1.039270e+01   0.000000e+00 -2.348949e-01) (   1.558906e+01   0.000000e+00  9.640033e-02) (   2.078541e+01   0.000000e+00 -5.806367e-02) 
9.7	(   1.039270e+00   0.000000e+00 -2.136362e-01) (   5.196352e+00   0.000000e+00  2.026227e-01) (   1.039270e+01   0.000000e+00 -2.450503e-01) (   1.558906e+01   0.000000e+00  1.020799e-01) (   2.078541e+01   0.000000e+00 -5.397722e-02) 
9.8	(   1.039270e+00   0.000000e+00 -2.413999e-01) (   5.196352e+00   0.000000e+00  1.904394e-01) (   1.039270e+01   0.000000e+00 -2.378276e-01) (   1.558906e+01   0.000000e+00  1.024618e-01) (   2.078541e+01   0.000000e+00 -4.768988e-02) 
9.9	(   1.039270e+00   0.000000e+00 -2.718480e-01) (   5.196352e+00   0.000000e+00  1.658082e-01) (   1.039270e+01   0.000000e+00 -2.126819e-01) (   1.558906e+01   0.000000e+00  9.671822e-02) (   2.078541e+01   0.000000e+00 -3.930568e-02) 
10	(   1.039270e+00   0.000000e+00 -2.698075e-01) (   5.196352e+00   0.000000e+00  1.330689e-01) (   1.039270e+01   0.000000e+00 -1.717581e-01) (   1.558906e+01   0.000000e+00  8.469164e-02) (   2.078541e+01   0.000000e+00 -2.905909e-02) 
10.1	(   1.039270e+00   0.000000e+00 -2.411459e-01) (   5.196352e+00   0.000000e+00  9.625285e-02) (   1.039270e+01   0.000000e+00 -1.198892e-01) (   1.558906e+01   0.000000e+00  6.636309e-02) (   2.078541e+01   0.000000e+00 -1.730223e-02) 
10.2	(   1.039270e+00   0.000000e+00 -1.919983e-01) (   5.196352e+00   0.000000e+00  5.617572e-02) (   1.039270e+01   0.000000e+00 -6.205522e-02) (   1.558906e+01   0.000000e+00  4.189740e-02) (   2.078541e+01   0.000000e+00 -4.499245e-03) 
10.3	(   1.039270e+00   0.000000e+00 -1.457298e-01) (   5.196352e+00   0.000000e+00  9.566023e-03) (   1.039270e+01   0.000000e+00 -3.352279e-03) (   1.558906e+01   0.000000e+00  1.190800e-02) (   2.078541e+01   0.000000e+00  8.797451e-03) 
10.4	(   1.039270e+00   0.000000e+00 -8.400300e-02) (   5.196352e+00   0.000000e+00 -4.367548e-02) (   1.039270e+01   0.000000e+00  5.250081e-02) (   1.558906e+01   0.000000e+00 -2.250264e-02) (   2.078541e+01   0.000000e+00  2.197065e-02) 
10.5	(   1.039270e+00   0.000000e+00 -2.163694e-02) (   5.196352e+00   0.000000e+00 -1.017614e-01) (   1.039270e+01   0.000000e+00  1.022901e-01) (   1.558906e+01   0.000000e+00 -5.977865e-02) (   2.078541e+01   0.000000e+00  3.434978e-02) 
10.6	(   1.039270e+00   0.000000e+00  3.607998e-02) (   5.196352e+00   0.000000e+00 -1.602390e-01) (   1.039270e+01   0.000000e+00  1.444765e-01) (   1.558906e+01   0.000000e+00 -9.854708e-02) (   2.078541e+01   0.000000e+00  4.525513e-02) 
10.7	(   1.039270e+00   0.000000e+00  8.163804e-02) (   5.196352e+00   0.000000e+00 -2.150030e-01) (   1.039270e+01   0.000000e+00  1.771720e-01) (   1.558906e+01   0.000000e+00 -1.355457e-01) (   2.078541e+01   0.000000e+00  5.397177e-02) 
10.8	(   1.039270e+00   0.000000e+00  1.236341e-01) (   5.196352e+00   0.000000e+00 -2.534762e-01) (   1.039270e+01   0.000000e+00  1.998580e-01) (   1.558906e+01   0.000000e+00 -1.675344e-01) (   2.078541e+01   0.000000e+00  6.013545e-02) 
10.9	(   1.039270e+00   0.000000e+00  1.673964e-01) (   5.196352e+00   0.000000e+00 -2.719573e-01) (   1.039270e+01   0.000000e+00  2.118719e-01) (   1.558906e+01   0.000000e+00 -1.917314e-01) (   2.078541e+01   0.000000e+00  6.332348e-02) 
11	(   1.039270e+00   0.000000e+00  1.944824e-01) (   5.196352e+00   0.000000e+00 -2.970098e-01) (   1.039270e+01   0.000000e+00  2.133492e-01) (   1.558906e+01   0.000000e+00 -2.055158e-01) (   2.078541e+01   0.000000e+00  6.327087e-02) 
11.1	(   1.039270e+00   0.000000e+00  2.041362e-01) (   5.196352e+00   0.000000e+00 -2.158564e-01) (   1.039270e+01   0.000000e+00  2.030423e-01) (   1.558906e+01   0.000000e+00 -2.058120e-01) (   2.078541e+01   0.000000e+00  5.941641e-02) 
11.2	(   1.039270e+00   0.000000e+00  2.019752e-01) (   5.196352e+00   0.000000e+00 -2.054516e-01) (   1.039270e+01   0.000000e+00  1.813953e-01) (   1.558906e+01   0.000000e+00 -1.903888e-01) (   2.078541e+01   0.000000e+00  5.162211e-02) 
11.3	(   1.039270e+00   0.000000e+00  1.955903e-01) (   5.196352e+00   0.000000e+00 -1.820654e-01) (   1.039270e+01   0.000000e+00  1.485874e-01) (   1.558906e+01   0.000000e+00 -1.595015e-01) (   2.078541e+01   0.000000e+00  3.991038e-02) 
11.4	(   1.039270e+00   0.000000e+00  1.868647e-01) (   5.196352e+00   0.000000e+00 -8.098344e-02) (   1.039270e+01   0.000000e+00  1.056574e-01) (   1.558906e+01   0.000000e+00 -1.171410e-01) (   2.078541e+01   0.000000e+00  2.444482e-02) 
11.5	(   1.039270e+00   0.000000e+00  1.510861e-01) (   5.196352e+00   0.000000e+00 -4.810796e-03) (   1.039270e+01   0.000000e+00  5.409033e-02) (   1.558906e+01   0.000000e+00 -6.749500e-02) (   2.078541e+01   0.000000e+00  5.595988e-03) 
11.6	(   1.039270e+00   0.000000e+00  1.279859e-01) (   5.196352e+00   0.000000e+00  4.154792e-02) (   1.039270e+01   0.000000e+00 -4.815856e-03) (   1.558906e+01   0.000000e+00 -1.489951e-02) (   2.078541e+01   0.000000e+00 -1.601201e-02) 
11.7	(   1.039270e+00   0.000000e+00  8.583472e-02) (   5.196352e+00   0.000000e+00  5.276643e-02) (   1.039270e+01   0.000000e+00 -6.666655e-02) (   1.558906e+01   0.000000e+00  3.620271e-02) (   2.078541e+01   0.000000e+00 -3.951543e-02) 
11.8	(   1.039270e+00   0.000000e+00  4.369554e-02) (   5.196352e+00   0.000000e+00  7.578241e-02) (   1.039270e+01   0.000000e+00 -1.283349e-01) (   1.558906e+01   0.000000e+00  8.292380e-02) (   2.078541e+01   0.000000e+00 -6.397505e-02) 
11.9	(   1.039270e+00   0.000000e+00 -1.250933e-02) (   5.196352e+00   0.000000e+00  1.197590e-01) (   1.039270e+01   0.000000e+00 -1.833433e-01) (   1.558906e+01   0.000000e+00  1.235025e-01) (   2.078541e+01   0.000000e+00 -8.825021e-02) 
12	(   1.039270e+00   0.000000e+00 -7.678317e-02) (   5.196352e+00   0.000000e+00  1.585616e-01) (   1.039270e+01   0.000000e+00 -2.284129e-01) (   1.558906e+01   0.000000e+00  1.561436e-01) (   2.078541e+01   0.000000e+00 -1.105422e-01) 
12.1	(   1.039270e+00   0.000000e+00 -1.356966e-01) (   5.196352e+00   0.000000e+00  1.893642e-01) (   1.039270e+01   0.000000e+00 -2.571002e-01) (   1.558906e+01   0.000000e+00  1.795111e-01) (   2.078541e+01   0.000000e+00 -1.290941e-01) 
12.2	(   1.039270e+00   0.000000e+00 -1.874790e-01) (   5.196352e+00   0.000000e+00  2.149997e-01) (   1.039270e+01   0.000000e+00 -2.664730e-01) (   1.558906e+01   0.000000e+00  1.931663e-01) (   2.078541e+01   0.000000e+00 -1.423150e-01) 
12.3	(   1.039270e+00   0.000000e+00 -2.280054e-01) (   5.196352e+00   0.000000e+00  2.222190e-01) (   1.039270e+01   0.000000e+00 -2.548589e-01) (   1.558906e+01   0.000000e+00  1.971201e-01) (   2.078541e+01   0.000000e+00 -1.487744e-01) 
12.4	(   1.039270e+00   0.000000e+00 -2.605755e-01) (   5.196352e+00   0.000000e+00  2.190635e-01) (   1.039270e+01   0.000000e+00 -2.274393e-01) (   1.558906e+01   0.000000e+00  1.904784e-01) (   2.078541e+01   0.000000e+00 -1.473712e-01) 