           0.1	(   7.556740e-01   0.000000e+00  3.171909e-05) (   3.778370e+00   0.000000e+00  6.523673e-06) (   7.556740e+00   0.000000e+00  1.486073e-06) (   1.133511e+01   0.000000e+00  3.515963e-07) (   1.511348e+01   0.000000e+00  8.348564e-08) 
0.2	(   7.556740e-01   0.000000e+00  2.057147e-04) (   3.778370e+00   0.000000e+00  4.009281e-05) (   7.556740e+00   0.000000e+00  9.117772e-06) (   1.133511e+01   0.000000e+00  2.172743e-06) (   1.511348e+01   0.000000e+00  5.202161e-07) 
0.3	(   7.556740e-01   0.000000e+00  5.899440e-04) (   3.778370e+00   0.000000e+00  1.104052e-04) (   7.556740e+00   0.000000e+00  2.518483e-05) (   1.133511e+01   0.000000e+00  6.066350e-06) (   1.511348e+01   0.000000e+00  1.469427e-06) 
0.4	(   7.556740e-01   0.000000e+00  1.224058e-03) (   3.778370e+00   0.000000e+00  2.230152e-04) (   7.556740e+00   0.000000e+00  5.127337e-05) (   1.133511e+01   0.000000e+00  1.252896e-05) (   1.511348e+01   0.000000e+00  3.080223e-06) 
0.5	(   7.556740e-01   0.000000e+00  2.112985e-03) (   3.778370e+00   0.000000e+00  3.798675e-04) (   7.556740e+00   0.000000e+00  8.844566e-05) (   1.133511e+01   0.000000e+00  2.200540e-05) (   1.511348e+01   0.000000e+00  5.508282e-06) 
0.6	(   7.556740e-01   0.000000e+00  3.214555e-03) (   3.778370e+00   0.000000e+00  5.788078e-04) (   7.556740e+00   0.000000e+00  1.371533e-04) (   1.133511e+01   0.000000e+00  3.487482e-05) (   1.511348e+01   0.000000e+00  8.915484e-06) 
0.7	(   7.556740e-01   0.000000e+00  4.437749e-03) (   3.778370e+00   0.000000e+00  8.160701e-04) (   7.556740e+00   0.000000e+00  1.978170e-04) (   1.133511e+01   0.000000e+00  5.159096e-05) (   1.511348e+01   0.000000e+00  1.350590e-05) 
0.8	(   7.556740e-01   0.000000e+00  5.621586e-03) (   3.778370e+00   0.000000e+00  1.083680e-03) (   7.556740e+00   0.000000e+00  2.702131e-04) (   1.133511e+01   0.000000e+00  7.253788e-05) (   1.511348e+01   0.000000e+00  1.949441e-05) 
0.9	(   7.556740e-01   0.000000e+00  6.543137e-03) (   3.778370e+00   0.000000e+00  1.371057e-03) (   7.556740e+00   0.000000e+00  3.538381e-04) (   1.133511e+01   0.000000e+00  9.810944e-05) (   1.511348e+01   0.000000e+00  2.712720e-05) 
1	(   7.556740e-01   0.000000e+00  6.916441e-03) (   3.778370e+00   0.000000e+00  1.660734e-03) (   7.556740e+00   0.000000e+00  4.469169e-04) (   1.133511e+01   0.000000e+00  1.284736e-04) (   1.511348e+01   0.000000e+00  3.663051e-05) 
1.1	(   7.556740e-01   0.000000e+00  6.456863e-03) (   3.778370e+00   0.000000e+00  1.933790e-03) (   7.556740e+00   0.000000e+00  5.474909e-04) (   1.133511e+01   0.000000e+00  1.637875e-04) (   1.511348e+01   0.000000e+00  4.825661e-05) 
1.2	(   7.556740e-01   0.000000e+00  4.927919e-03) (   3.778370e+00   0.000000e+00  2.166588e-03) (   7.556740e+00   0.000000e+00  6.525832e-04) (   1.133511e+01   0.000000e+00  2.039928e-04) (   1.511348e+01   0.000000e+00  6.223700e-05) 
1.3	(   7.556740e-01   0.000000e+00  2.198153e-03) (   3.778370e+00   0.000000e+00  2.323906e-03) (   7.556740e+00   0.000000e+00  7.564689e-04) (   1.133511e+01   0.000000e+00  2.483740e-04) (   1.511348e+01   0.000000e+00  7.867100e-05) 
1.4	(   7.556740e-01   0.000000e+00 -1.622421e-03) (   3.778370e+00   0.000000e+00  2.377758e-03) (   7.556740e+00   0.000000e+00  8.550419e-04) (   1.133511e+01   0.000000e+00  2.965679e-04) (   1.511348e+01   0.000000e+00  9.775405e-05) 
1.5	(   7.556740e-01   0.000000e+00 -6.183078e-03) (   3.778370e+00   0.000000e+00  2.303604e-03) (   7.556740e+00   0.000000e+00  9.444958e-04) (   1.133511e+01   0.000000e+00  3.482454e-04) (   1.511348e+01   0.000000e+00  1.196985e-04) 
1.6	(   7.556740e-01   0.000000e+00 -1.098878e-02) (   3.778370e+00   0.000000e+00  2.069421e-03) (   7.556740e+00   0.000000e+00  1.018293e-03) (   1.133511e+01   0.000000e+00  4.023243e-04) (   1.511348e+01   0.000000e+00  1.445426e-04) 
1.7	(   7.556740e-01   0.000000e+00 -1.545482e-02) (   3.778370e+00   0.000000e+00  1.648977e-03) (   7.556740e+00   0.000000e+00  1.069939e-03) (   1.133511e+01   0.000000e+00  4.575543e-04) (   1.511348e+01   0.000000e+00  1.722783e-04) 
1.8	(   7.556740e-01   0.000000e+00 -1.898913e-02) (   3.778370e+00   0.000000e+00  1.031899e-03) (   7.556740e+00   0.000000e+00  1.094903e-03) (   1.133511e+01   0.000000e+00  5.129213e-04) (   1.511348e+01   0.000000e+00  2.029373e-04) 
1.9	(   7.556740e-01   0.000000e+00 -2.112840e-02) (   3.778370e+00   0.000000e+00  2.069804e-04) (   7.556740e+00   0.000000e+00  1.086254e-03) (   1.133511e+01   0.000000e+00  5.665520e-04) (   1.511348e+01   0.000000e+00  2.363117e-04) 
2	(   7.556740e-01   0.000000e+00 -2.147335e-02) (   3.778370e+00   0.000000e+00 -8.268883e-04) (   7.556740e+00   0.000000e+00  1.036726e-03) (   1.133511e+01   0.000000e+00  6.161522e-04) (   1.511348e+01   0.000000e+00  2.720488e-04) 
2.1	(   7.556740e-01   0.000000e+00 -1.971437e-02) (   3.778370e+00   0.000000e+00 -2.057095e-03) (   7.556740e+00   0.000000e+00  9.391616e-04) (   1.133511e+01   0.000000e+00  6.589812e-04) (   1.511348e+01   0.000000e+00  3.095985e-04) 
2.2	(   7.556740e-01   0.000000e+00 -1.576131e-02) (   3.778370e+00   0.000000e+00 -3.449154e-03) (   7.556740e+00   0.000000e+00  7.876715e-04) (   1.133511e+01   0.000000e+00  6.921240e-04) (   1.511348e+01   0.000000e+00  3.482650e-04) 
2.3	(   7.556740e-01   0.000000e+00 -9.851970e-03) (   3.778370e+00   0.000000e+00 -4.946390e-03) (   7.556740e+00   0.000000e+00  5.773739e-04) (   1.133511e+01   0.000000e+00  7.123712e-04) (   1.511348e+01   0.000000e+00  3.871436e-04) 
2.4	(   7.556740e-01   0.000000e+00 -2.498570e-03) (   3.778370e+00   0.000000e+00 -6.472164e-03) (   7.556740e+00   0.000000e+00  3.037833e-04) (   1.133511e+01   0.000000e+00  7.159922e-04) (   1.511348e+01   0.000000e+00  4.250448e-04) 
2.5	(   7.556740e-01   0.000000e+00  5.631508e-03) (   3.778370e+00   0.000000e+00 -7.931665e-03) (   7.556740e+00   0.000000e+00 -3.740793e-05) (   1.133511e+01   0.000000e+00  6.985718e-04) (   1.511348e+01   0.000000e+00  4.604321e-04) 
2.6	(   7.556740e-01   0.000000e+00  1.387633e-02) (   3.778370e+00   0.000000e+00 -9.187009e-03) (   7.556740e+00   0.000000e+00 -4.437315e-04) (   1.133511e+01   0.000000e+00  6.566825e-04) (   1.511348e+01   0.000000e+00  4.917554e-04) 
2.7	(   7.556740e-01   0.000000e+00  2.152703e-02) (   3.778370e+00   0.000000e+00 -1.008024e-02) (   7.556740e+00   0.000000e+00 -9.096665e-04) (   1.133511e+01   0.000000e+00  5.869926e-04) (   1.511348e+01   0.000000e+00  5.172254e-04) 
2.8	(   7.556740e-01   0.000000e+00  2.787564e-02) (   3.778370e+00   0.000000e+00 -1.044590e-02) (   7.556740e+00   0.000000e+00 -1.426450e-03) (   1.133511e+01   0.000000e+00  4.863591e-04) (   1.511348e+01   0.000000e+00  5.348256e-04) 
2.9	(   7.556740e-01   0.000000e+00  3.233406e-02) (   3.778370e+00   0.000000e+00 -1.010886e-02) (   7.556740e+00   0.000000e+00 -1.978749e-03) (   1.133511e+01   0.000000e+00  3.527007e-04) (   1.511348e+01   0.000000e+00  5.425015e-04) 
3	(   7.556740e-01   0.000000e+00  3.441870e-02) (   3.778370e+00   0.000000e+00 -8.924022e-03) (   7.556740e+00   0.000000e+00 -2.547895e-03) (   1.133511e+01   0.000000e+00  1.844078e-04) (   1.511348e+01   0.000000e+00  5.379912e-04) 
3.1	(   7.556740e-01   0.000000e+00  3.381024e-02) (   3.778370e+00   0.000000e+00 -6.798533e-03) (   7.556740e+00   0.000000e+00 -3.109760e-03) (   1.133511e+01   0.000000e+00 -1.892667e-05) (   1.511348e+01   0.000000e+00  5.190049e-04) 
3.2	(   7.556740e-01   0.000000e+00  3.036159e-02) (   3.778370e+00   0.000000e+00 -3.713704e-03) (   7.556740e+00   0.000000e+00 -3.635107e-03) (   1.133511e+01   0.000000e+00 -2.562955e-04) (   1.511348e+01   0.000000e+00  4.833773e-04) 
3.3	(   7.556740e-01   0.000000e+00  2.411928e-02) (   3.778370e+00   0.000000e+00  2.441772e-04) (   7.556740e+00   0.000000e+00 -4.090938e-03) (   1.133511e+01   0.000000e+00 -5.252470e-04) (   1.511348e+01   0.000000e+00  4.290625e-04) 
3.4	(   7.556740e-01   0.000000e+00  1.534607e-02) (   3.778370e+00   0.000000e+00  4.872130e-03) (   7.556740e+00   0.000000e+00 -4.440891e-03) (   1.133511e+01   0.000000e+00 -8.214507e-04) (   1.511348e+01   0.000000e+00  3.542940e-04) 
3.5	(   7.556740e-01   0.000000e+00  4.513451e-03) (   3.778370e+00   0.000000e+00  9.844774e-03) (   7.556740e+00   0.000000e+00 -4.647030e-03) (   1.133511e+01   0.000000e+00 -1.138808e-03) (   1.511348e+01   0.000000e+00  2.576453e-04) 
3.6	(   7.556740e-01   0.000000e+00 -7.649941e-03) (   3.778370e+00   0.000000e+00  1.474788e-02) (   7.556740e+00   0.000000e+00 -4.668435e-03) (   1.133511e+01   0.000000e+00 -1.468333e-03) (   1.511348e+01   0.000000e+00  1.383801e-04) 
3.7	(   7.556740e-01   0.000000e+00 -2.021454e-02) (   3.778370e+00   0.000000e+00  1.909471e-02) (   7.556740e+00   0.000000e+00 -4.467047e-03) (   1.133511e+01   0.000000e+00 -1.799066e-03) (   1.511348e+01   0.000000e+00 -3.611825e-06) 
3.8	(   7.556740e-01   0.000000e+00 -3.213936e-02) (   3.778370e+00   0.000000e+00  2.236770e-02) (   7.556740e+00   0.000000e+00 -4.013485e-03) (   1.133511e+01   0.000000e+00 -2.118479e-03) (   1.511348e+01   0.000000e+00 -1.677573e-04) 
3.9	(   7.556740e-01   0.000000e+00 -4.225738e-02) (   3.778370e+00   0.000000e+00  2.408696e-02) (   7.556740e+00   0.000000e+00 -3.286935e-03) (   1.133511e+01   0.000000e+00 -2.411926e-03) (   1.511348e+01   0.000000e+00 -3.525009e-04) 
4	(   7.556740e-01   0.000000e+00 -4.933126e-02) (   3.778370e+00   0.000000e+00  2.387139e-02) (   7.556740e+00   0.000000e+00 -2.277592e-03) (   1.133511e+01   0.000000e+00 -2.662801e-03) (   1.511348e+01   0.000000e+00 -5.551445e-04) 
4.1	(   7.556740e-01   0.000000e+00 -5.232162e-02) (   3.778370e+00   0.000000e+00  2.146573e-02) (   7.556740e+00   0.000000e+00 -9.941927e-04) (   1.133511e+01   0.000000e+00 -2.853841e-03) (   1.511348e+01   0.000000e+00 -7.719272e-04) 
4.2	(   7.556740e-01   0.000000e+00 -5.061565e-02) (   3.778370e+00   0.000000e+00  1.679893e-02) (   7.556740e+00   0.000000e+00  5.334263e-04) (   1.133511e+01   0.000000e+00 -2.967777e-03) (   1.511348e+01   0.000000e+00 -9.980292e-04) 
4.3	(   7.556740e-01   0.000000e+00 -4.419506e-02) (   3.778370e+00   0.000000e+00  1.001693e-02) (   7.556740e+00   0.000000e+00  2.252458e-03) (   1.133511e+01   0.000000e+00 -2.987840e-03) (   1.511348e+01   0.000000e+00 -1.227391e-03) 
4.4	(   7.556740e-01   0.000000e+00 -3.356517e-02) (   3.778370e+00   0.000000e+00  1.510283e-03) (   7.556740e+00   0.000000e+00  4.087097e-03) (   1.133511e+01   0.000000e+00 -2.898182e-03) (   1.511348e+01   0.000000e+00 -1.452774e-03) 
4.5	(   7.556740e-01   0.000000e+00 -1.971415e-02) (   3.778370e+00   0.000000e+00 -8.115562e-03) (   7.556740e+00   0.000000e+00  5.935289e-03) (   1.133511e+01   0.000000e+00 -2.686479e-03) (   1.511348e+01   0.000000e+00 -1.666076e-03) 
4.6	(   7.556740e-01   0.000000e+00 -4.018689e-03) (   3.778370e+00   0.000000e+00 -1.807419e-02) (   7.556740e+00   0.000000e+00  7.669313e-03) (   1.133511e+01   0.000000e+00 -2.345689e-03) (   1.511348e+01   0.000000e+00 -1.858637e-03) 
4.7	(   7.556740e-01   0.000000e+00  1.206552e-02) (   3.778370e+00   0.000000e+00 -2.743654e-02) (   7.556740e+00   0.000000e+00  9.144108e-03) (   1.133511e+01   0.000000e+00 -1.874226e-03) (   1.511348e+01   0.000000e+00 -2.021307e-03) 
4.8	(   7.556740e-01   0.000000e+00  2.724162e-02) (   3.778370e+00   0.000000e+00 -3.518496e-02) (   7.556740e+00   0.000000e+00  1.021255e-02) (   1.133511e+01   0.000000e+00 -1.275524e-03) (   1.511348e+01   0.000000e+00 -2.144388e-03) 
4.9	(   7.556740e-01   0.000000e+00  4.031266e-02) (   3.778370e+00   0.000000e+00 -4.038371e-02) (   7.556740e+00   0.000000e+00  1.072737e-02) (   1.133511e+01   0.000000e+00 -5.604090e-04) (   1.511348e+01   0.000000e+00 -2.218375e-03) 
5	(   7.556740e-01   0.000000e+00  5.024949e-02) (   3.778370e+00   0.000000e+00 -4.233467e-02) (   7.556740e+00   0.000000e+00  1.055496e-02) (   1.133511e+01   0.000000e+00  2.521993e-04) (   1.511348e+01   0.000000e+00 -2.234393e-03) 
5.1	(   7.556740e-01   0.000000e+00  5.626341e-02) (   3.778370e+00   0.000000e+00 -4.065798e-02) (   7.556740e+00   0.000000e+00  9.584233e-03) (   1.133511e+01   0.000000e+00  1.134555e-03) (   1.511348e+01   0.000000e+00 -2.184492e-03) 
5.2	(   7.556740e-01   0.000000e+00  5.784822e-02) (   3.778370e+00   0.000000e+00 -3.538160e-02) (   7.556740e+00   0.000000e+00  7.747004e-03) (   1.133511e+01   0.000000e+00  2.050124e-03) (   1.511348e+01   0.000000e+00 -2.062509e-03) 
5.3	(   7.556740e-01   0.000000e+00  5.483296e-02) (   3.778370e+00   0.000000e+00 -2.690235e-02) (   7.556740e+00   0.000000e+00  5.029993e-03) (   1.133511e+01   0.000000e+00  2.955083e-03) (   1.511348e+01   0.000000e+00 -1.864537e-03) 
5.4	(   7.556740e-01   0.000000e+00  4.736394e-02) (   3.778370e+00   0.000000e+00 -1.589365e-02) (   7.556740e+00   0.000000e+00  1.484221e-03) (   1.133511e+01   0.000000e+00  3.798255e-03) (   1.511348e+01   0.000000e+00 -1.589562e-03) 
5.5	(   7.556740e-01   0.000000e+00  3.594689e-02) (   3.778370e+00   0.000000e+00 -3.233868e-03) (   7.556740e+00   0.000000e+00 -2.761184e-03) (   1.133511e+01   0.000000e+00  4.523270e-03) (   1.511348e+01   0.000000e+00 -1.239861e-03) 
5.6	(   7.556740e-01   0.000000e+00  2.141177e-02) (   3.778370e+00   0.000000e+00  1.007646e-02) (   7.556740e+00   0.000000e+00 -7.496723e-03) (   1.133511e+01   0.000000e+00  5.071443e-03) (   1.511348e+01   0.000000e+00 -8.213882e-04) 
5.7	(   7.556740e-01   0.000000e+00  4.858359e-03) (   3.778370e+00   0.000000e+00  2.297934e-02) (   7.556740e+00   0.000000e+00 -1.243049e-02) (   1.133511e+01   0.000000e+00  5.384470e-03) (   1.511348e+01   0.000000e+00 -3.441801e-04) 
5.8	(   7.556740e-01   0.000000e+00 -1.228025e-02) (   3.778370e+00   0.000000e+00  3.445378e-02) (   7.556740e+00   0.000000e+00 -1.718955e-02) (   1.133511e+01   0.000000e+00  5.408927e-03) (   1.511348e+01   0.000000e+00  1.776980e-04) 
5.9	(   7.556740e-01   0.000000e+00 -2.857132e-02) (   3.778370e+00   0.000000e+00  4.357216e-02) (   7.556740e+00   0.000000e+00 -2.134523e-02) (   1.133511e+01   0.000000e+00  5.098044e-03) (   1.511348e+01   0.000000e+00  7.258998e-04) 
6	(   7.556740e-01   0.000000e+00 -4.274143e-02) (   3.778370e+00   0.000000e+00  4.955921e-02) (   7.556740e+00   0.000000e+00 -2.443986e-02) (   1.133511e+01   0.000000e+00  4.418267e-03) (   1.511348e+01   0.000000e+00  1.278097e-03) 
6.1	(   7.556740e-01   0.000000e+00 -5.363194e-02) (   3.778370e+00   0.000000e+00  5.184448e-02) (   7.556740e+00   0.000000e+00 -2.602798e-02) (   1.133511e+01   0.000000e+00  3.353504e-03) (   1.511348e+01   0.000000e+00  1.808436e-03) 
6.2	(   7.556740e-01   0.000000e+00 -6.018509e-02) (   3.778370e+00   0.000000e+00  5.011991e-02) (   7.556740e+00   0.000000e+00 -2.572961e-02) (   1.133511e+01   0.000000e+00  1.909064e-03) (   1.511348e+01   0.000000e+00  2.288825e-03) 
6.3	(   7.556740e-01   0.000000e+00 -6.152742e-02) (   3.778370e+00   0.000000e+00  4.435152e-02) (   7.556740e+00   0.000000e+00 -2.328716e-02) (   1.133511e+01   0.000000e+00  1.146570e-04) (   1.511348e+01   0.000000e+00  2.689386e-03) 
6.4	(   7.556740e-01   0.000000e+00 -5.735336e-02) (   3.778370e+00   0.000000e+00  3.480483e-02) (   7.556740e+00   0.000000e+00 -1.864568e-02) (   1.133511e+01   0.000000e+00 -1.972624e-03) (   1.511348e+01   0.000000e+00  2.979925e-03) 
6.5	(   7.556740e-01   0.000000e+00 -4.821639e-02) (   3.778370e+00   0.000000e+00  2.205446e-02) (   7.556740e+00   0.000000e+00 -1.197206e-02) (   1.133511e+01   0.000000e+00 -4.266585e-03) (   1.511348e+01   0.000000e+00  3.131560e-03) 
6.6	(   7.556740e-01   0.000000e+00 -3.519562e-02) (   3.778370e+00   0.000000e+00  6.935819e-03) (   7.556740e+00   0.000000e+00 -3.663619e-03) (   1.133511e+01   0.000000e+00 -6.652399e-03) (   1.511348e+01   0.000000e+00  3.118318e-03) 
6.7	(   7.556740e-01   0.000000e+00 -1.959233e-02) (   3.778370e+00   0.000000e+00 -9.465466e-03) (   7.556740e+00   0.000000e+00  5.678487e-03) (   1.133511e+01   0.000000e+00 -8.988418e-03) (   1.511348e+01   0.000000e+00  2.918510e-03) 
6.8	(   7.556740e-01   0.000000e+00 -2.758729e-03) (   3.778370e+00   0.000000e+00 -2.581970e-02) (   7.556740e+00   0.000000e+00  1.530866e-02) (   1.133511e+01   0.000000e+00 -1.111130e-02) (   1.511348e+01   0.000000e+00  2.517773e-03) 
6.9	(   7.556740e-01   0.000000e+00  1.390921e-02) (   3.778370e+00   0.000000e+00 -4.067877e-02) (   7.556740e+00   0.000000e+00  2.440295e-02) (   1.133511e+01   0.000000e+00 -1.284575e-02) (   1.511348e+01   0.000000e+00  1.910049e-03) 
7	(   7.556740e-01   0.000000e+00  2.919338e-02) (   3.778370e+00   0.000000e+00 -5.253538e-02) (   7.556740e+00   0.000000e+00  3.214141e-02) (   1.133511e+01   0.000000e+00 -1.401418e-02) (   1.511348e+01   0.000000e+00  1.099539e-03) 
7.1	(   7.556740e-01   0.000000e+00  4.203099e-02) (   3.778370e+00   0.000000e+00 -5.999207e-02) (   7.556740e+00   0.000000e+00  3.778310e-02) (   1.133511e+01   0.000000e+00 -1.444966e-02) (   1.511348e+01   0.000000e+00  1.023487e-04) 
7.2	(   7.556740e-01   0.000000e+00  5.151742e-02) (   3.778370e+00   0.000000e+00 -6.202867e-02) (   7.556740e+00   0.000000e+00  4.072041e-02) (   1.133511e+01   0.000000e+00 -1.401124e-02) (   1.511348e+01   0.000000e+00 -1.053013e-03) 
7.3	(   7.556740e-01   0.000000e+00  5.698561e-02) (   3.778370e+00   0.000000e+00 -5.824238e-02) (   7.556740e+00   0.000000e+00  4.053448e-02) (   1.133511e+01   0.000000e+00 -1.260217e-02) (   1.511348e+01   0.000000e+00 -2.325199e-03) 
7.4	(   7.556740e-01   0.000000e+00  5.807308e-02) (   3.778370e+00   0.000000e+00 -4.911136e-02) (   7.556740e+00   0.000000e+00  3.701835e-02) (   1.133511e+01   0.000000e+00 -1.018914e-02) (   1.511348e+01   0.000000e+00 -3.659704e-03) 
7.5	(   7.556740e-01   0.000000e+00  5.469763e-02) (   3.778370e+00   0.000000e+00 -3.572983e-02) (   7.556740e+00   0.000000e+00  3.022767e-02) (   1.133511e+01   0.000000e+00 -6.812859e-03) (   1.511348e+01   0.000000e+00 -4.990582e-03) 
7.6	(   7.556740e-01   0.000000e+00  4.703665e-02) (   3.778370e+00   0.000000e+00 -1.953130e-02) (   7.556740e+00   0.000000e+00  2.048625e-02) (   1.133511e+01   0.000000e+00 -2.596444e-03) (   1.511348e+01   0.000000e+00 -6.242090e-03) 
7.7	(   7.556740e-01   0.000000e+00  3.557045e-02) (   3.778370e+00   0.000000e+00 -2.070445e-03) (   7.556740e+00   0.000000e+00  8.392139e-03) (   1.133511e+01   0.000000e+00  2.253159e-03) (   1.511348e+01   0.000000e+00 -7.331624e-03) 
7.8	(   7.556740e-01   0.000000e+00  2.108861e-02) (   3.778370e+00   0.000000e+00  1.514651e-02) (   7.556740e+00   0.000000e+00 -5.215814e-03) (   1.133511e+01   0.000000e+00  7.452600e-03) (   1.511348e+01   0.000000e+00 -8.174721e-03) 
7.9	(   7.556740e-01   0.000000e+00  4.691647e-03) (   3.778370e+00   0.000000e+00  3.079491e-02) (   7.556740e+00   0.000000e+00 -1.924636e-02) (   1.133511e+01   0.000000e+00  1.265698e-02) (   1.511348e+01   0.000000e+00 -8.688622e-03) 
8	(   7.556740e-01   0.000000e+00 -1.230190e-02) (   3.778370e+00   0.000000e+00  4.371966e-02) (   7.556740e+00   0.000000e+00 -3.243698e-02) (   1.133511e+01   0.000000e+00  1.748273e-02) (   1.511348e+01   0.000000e+00 -8.799235e-03) 
8.1	(   7.556740e-01   0.000000e+00 -2.854961e-02) (   3.778370e+00   0.000000e+00  5.300761e-02) (   7.556740e+00   0.000000e+00 -4.348924e-02) (   1.133511e+01   0.000000e+00  2.153088e-02) (   1.511348e+01   0.000000e+00 -8.445226e-03) 
8.2	(   7.556740e-01   0.000000e+00 -4.277048e-02) (   3.778370e+00   0.000000e+00  5.804857e-02) (   7.556740e+00   0.000000e+00 -5.119150e-02) (   1.133511e+01   0.000000e+00  2.441816e-02) (   1.511348e+01   0.000000e+00 -7.587001e-03) 
8.3	(   7.556740e-01   0.000000e+00 -5.371930e-02) (   3.778370e+00   0.000000e+00  5.854769e-02) (   7.556740e+00   0.000000e+00 -5.456819e-02) (   1.133511e+01   0.000000e+00  2.580722e-02) (   1.511348e+01   0.000000e+00 -6.212464e-03) 
8.4	(   7.556740e-01   0.000000e+00 -6.022722e-02) (   3.778370e+00   0.000000e+00  5.450851e-02) (   7.556740e+00   0.000000e+00 -5.314655e-02) (   1.133511e+01   0.000000e+00  2.543687e-02) (   1.511348e+01   0.000000e+00 -4.340306e-03) 
8.5	(   7.556740e-01   0.000000e+00 -6.149585e-02) (   3.778370e+00   0.000000e+00  4.623774e-02) (   7.556740e+00   0.000000e+00 -4.696090e-02) (   1.133511e+01   0.000000e+00  2.313999e-02) (   1.511348e+01   0.000000e+00 -2.025072e-03) 
8.6	(   7.556740e-01   0.000000e+00 -5.731500e-02) (   3.778370e+00   0.000000e+00  3.432215e-02) (   7.556740e+00   0.000000e+00 -3.663126e-02) (   1.133511e+01   0.000000e+00  1.887974e-02) (   1.511348e+01   0.000000e+00  6.429406e-04) 
8.7	(   7.556740e-01   0.000000e+00 -4.819456e-02) (   3.778370e+00   0.000000e+00  1.956958e-02) (   7.556740e+00   0.000000e+00 -2.317497e-02) (   1.133511e+01   0.000000e+00  1.276300e-02) (   1.511348e+01   0.000000e+00  3.538520e-03) 
8.8	(   7.556740e-01   0.000000e+00 -3.517013e-02) (   3.778370e+00   0.000000e+00  3.025332e-03) (   7.556740e+00   0.000000e+00 -7.804400e-03) (   1.133511e+01   0.000000e+00  5.053935e-03) (   1.511348e+01   0.000000e+00  6.505916e-03) 
8.9	(   7.556740e-01   0.000000e+00 -1.956779e-02) (   3.778370e+00   0.000000e+00 -1.403089e-02) (   7.556740e+00   0.000000e+00  8.182009e-03) (   1.133511e+01   0.000000e+00 -3.826124e-03) (   1.511348e+01   0.000000e+00  9.365061e-03) 
9	(   7.556740e-01   0.000000e+00 -2.737318e-03) (   3.778370e+00   0.000000e+00 -3.021665e-02) (   7.556740e+00   0.000000e+00  2.351377e-02) (   1.133511e+01   0.000000e+00 -1.330293e-02) (   1.511348e+01   0.000000e+00  1.192316e-02) 
9.1	(   7.556740e-01   0.000000e+00  1.393428e-02) (   3.778370e+00   0.000000e+00 -4.416159e-02) (   7.556740e+00   0.000000e+00  3.700074e-02) (   1.133511e+01   0.000000e+00 -2.265282e-02) (   1.511348e+01   0.000000e+00  1.398099e-02) 
9.2	(   7.556740e-01   0.000000e+00  2.921402e-02) (   3.778370e+00   0.000000e+00 -5.460515e-02) (   7.556740e+00   0.000000e+00  4.763417e-02) (   1.133511e+01   0.000000e+00 -3.105898e-02) (   1.511348e+01   0.000000e+00  1.535048e-02) 
9.3	(   7.556740e-01   0.000000e+00  4.203111e-02) (   3.778370e+00   0.000000e+00 -6.052155e-02) (   7.556740e+00   0.000000e+00  5.462893e-02) (   1.133511e+01   0.000000e+00 -3.765668e-02) (   1.511348e+01   0.000000e+00  1.586659e-02) 
9.4	(   7.556740e-01   0.000000e+00  5.149842e-02) (   3.778370e+00   0.000000e+00 -6.134209e-02) (   7.556740e+00   0.000000e+00  5.743292e-02) (   1.133511e+01   0.000000e+00 -4.164052e-02) (   1.511348e+01   0.000000e+00  1.540017e-02) 
9.5	(   7.556740e-01   0.000000e+00  5.696778e-02) (   3.778370e+00   0.000000e+00 -5.690365e-02) (   7.556740e+00   0.000000e+00  5.574954e-02) (   1.133511e+01   0.000000e+00 -4.235634e-02) (   1.511348e+01   0.000000e+00  1.386834e-02) 
9.6	(   7.556740e-01   0.000000e+00  5.806579e-02) (   3.778370e+00   0.000000e+00 -4.758152e-02) (   7.556740e+00   0.000000e+00  4.957179e-02) (   1.133511e+01   0.000000e+00 -3.944607e-02) (   1.511348e+01   0.000000e+00  1.125237e-02) 
9.7	(   7.556740e-01   0.000000e+00  5.468770e-02) (   3.778370e+00   0.000000e+00 -3.430519e-02) (   7.556740e+00   0.000000e+00  3.922225e-02) (   1.133511e+01   0.000000e+00 -3.293328e-02) (   1.511348e+01   0.000000e+00  7.604386e-03) 
9.8	(   7.556740e-01   0.000000e+00  4.701407e-02) (   3.778370e+00   0.000000e+00 -1.835454e-02) (   7.556740e+00   0.000000e+00  2.534077e-02) (   1.133511e+01   0.000000e+00 -2.324688e-02) (   1.511348e+01   0.000000e+00  3.053860e-03) 
9.9	(   7.556740e-01   0.000000e+00  3.554529e-02) (   3.778370e+00   0.000000e+00 -1.192190e-03) (   7.556740e+00   0.000000e+00  8.842714e-03) (   1.133511e+01   0.000000e+00 -1.117867e-02) (   1.511348e+01   0.000000e+00 -2.190410e-03) 
10	(   7.556740e-01   0.000000e+00  2.106974e-02) (   3.778370e+00   0.000000e+00  1.568875e-02) (   7.556740e+00   0.000000e+00 -9.022450e-03) (   1.133511e+01   0.000000e+00  2.237975e-03) (   1.511348e+01   0.000000e+00 -7.844749e-03) 
10.1	(   7.556740e-01   0.000000e+00  4.693199e-03) (   3.778370e+00   0.000000e+00  3.093620e-02) (   7.556740e+00   0.000000e+00 -2.670956e-02) (   1.133511e+01   0.000000e+00  1.585308e-02) (   1.511348e+01   0.000000e+00 -1.355381e-02) 
10.2	(   7.556740e-01   0.000000e+00 -1.228151e-02) (   3.778370e+00   0.000000e+00  4.345767e-02) (   7.556740e+00   0.000000e+00 -4.256400e-02) (   1.133511e+01   0.000000e+00  2.851392e-02) (   1.511348e+01   0.000000e+00 -1.890509e-02) 
10.3	(   7.556740e-01   0.000000e+00 -2.853253e-02) (   3.778370e+00   0.000000e+00  5.243871e-02) (   7.556740e+00   0.000000e+00 -5.495254e-02) (   1.133511e+01   0.000000e+00  3.915268e-02) (   1.511348e+01   0.000000e+00 -2.345524e-02) 
10.4	(   7.556740e-01   0.000000e+00 -4.275356e-02) (   3.778370e+00   0.000000e+00  5.733237e-02) (   7.556740e+00   0.000000e+00 -6.243304e-02) (   1.133511e+01   0.000000e+00  4.687259e-02) (   1.511348e+01   0.000000e+00 -2.676496e-02) 
10.5	(   7.556740e-01   0.000000e+00 -5.368942e-02) (   3.778370e+00   0.000000e+00  5.785594e-02) (   7.556740e+00   0.000000e+00 -6.413194e-02) (   1.133511e+01   0.000000e+00  5.098839e-02) (   1.511348e+01   0.000000e+00 -2.843453e-02) 
10.6	(   7.556740e-01   0.000000e+00 -6.018880e-02) (   3.778370e+00   0.000000e+00  5.399337e-02) (   7.556740e+00   0.000000e+00 -5.989090e-02) (   1.133511e+01   0.000000e+00  5.107559e-02) (   1.511348e+01   0.000000e+00 -2.815609e-02) 
10.7	(   7.556740e-01   0.000000e+00 -6.146017e-02) (   3.778370e+00   0.000000e+00  4.599582e-02) (   7.556740e+00   0.000000e+00 -5.031313e-02) (   1.133511e+01   0.000000e+00  4.699504e-02) (   1.511348e+01   0.000000e+00 -2.575039e-02) 
10.8	(   7.556740e-01   0.000000e+00 -5.728399e-02) (   3.778370e+00   0.000000e+00  3.435847e-02) (   7.556740e+00   0.000000e+00 -3.657823e-02) (   1.133511e+01   0.000000e+00  3.891760e-02) (   1.511348e+01   0.000000e+00 -2.122428e-02) 
10.9	(   7.556740e-01   0.000000e+00 -4.818244e-02) (   3.778370e+00   0.000000e+00  1.982194e-02) (   7.556740e+00   0.000000e+00 -2.015477e-02) (   1.133511e+01   0.000000e+00  2.732122e-02) (   1.511348e+01   0.000000e+00 -1.477572e-02) 
11	(   7.556740e-01   0.000000e+00 -3.517416e-02) (   3.778370e+00   0.000000e+00  3.385335e-03) (   7.556740e+00   0.000000e+00 -2.564992e-03) (   1.133511e+01   0.000000e+00  1.296918e-02) (   1.511348e+01   0.000000e+00 -6.786624e-03) 
11.1	(   7.556740e-01   0.000000e+00 -1.957130e-02) (   3.778370e+00   0.000000e+00 -1.373142e-02) (   7.556740e+00   0.000000e+00  1.471615e-02) (   1.133511e+01   0.000000e+00 -3.115169e-03) (   1.511348e+01   0.000000e+00  2.201096e-03) 
11.2	(   7.556740e-01   0.000000e+00 -2.736254e-03) (   3.778370e+00   0.000000e+00 -3.010166e-02) (   7.556740e+00   0.000000e+00  3.038896e-02) (   1.133511e+01   0.000000e+00 -1.961955e-02) (   1.511348e+01   0.000000e+00  1.152966e-02) 
11.3	(   7.556740e-01   0.000000e+00  1.392448e-02) (   3.778370e+00   0.000000e+00 -4.424612e-02) (   7.556740e+00   0.000000e+00  4.332480e-02) (   1.133511e+01   0.000000e+00 -3.507635e-02) (   1.511348e+01   0.000000e+00  2.047962e-02) 
11.4	(   7.556740e-01   0.000000e+00  2.918882e-02) (   3.778370e+00   0.000000e+00 -5.479027e-02) (   7.556740e+00   0.000000e+00  5.266446e-02) (   1.133511e+01   0.000000e+00 -4.797714e-02) (   1.511348e+01   0.000000e+00  2.833520e-02) 
11.5	(   7.556740e-01   0.000000e+00  4.199966e-02) (   3.778370e+00   0.000000e+00 -6.069256e-02) (   7.556740e+00   0.000000e+00  5.782600e-02) (   1.133511e+01   0.000000e+00 -5.695353e-02) (   1.511348e+01   0.000000e+00  3.443134e-02) 
11.6	(   7.556740e-01   0.000000e+00  5.147504e-02) (   3.778370e+00   0.000000e+00 -6.141174e-02) (   7.556740e+00   0.000000e+00  5.853006e-02) (   1.133511e+01   0.000000e+00 -6.092112e-02) (   1.511348e+01   0.000000e+00  3.820068e-02) 
11.7	(   7.556740e-01   0.000000e+00  5.695914e-02) (   3.778370e+00   0.000000e+00 -5.685045e-02) (   7.556740e+00   0.000000e+00  5.477866e-02) (   1.133511e+01   0.000000e+00 -5.937320e-02) (   1.511348e+01   0.000000e+00  3.922034e-02) 
11.8	(   7.556740e-01   0.000000e+00  5.807136e-02) (   3.778370e+00   0.000000e+00 -4.745321e-02) (   7.556740e+00   0.000000e+00  4.683630e-02) (   1.133511e+01   0.000000e+00 -5.245668e-02) (   1.511348e+01   0.000000e+00  3.723580e-02) 
11.9	(   7.556740e-01   0.000000e+00  5.470754e-02) (   3.778370e+00   0.000000e+00 -3.412596e-02) (   7.556740e+00   0.000000e+00  3.525655e-02) (   1.133511e+01   0.000000e+00 -4.094086e-02) (   1.511348e+01   0.000000e+00  3.219920e-02) 
12	(   7.556740e-01   0.000000e+00  4.703119e-02) (   3.778370e+00   0.000000e+00 -1.815805e-02) (   7.556740e+00   0.000000e+00  2.083066e-02) (   1.133511e+01   0.000000e+00 -2.602585e-02) (   1.511348e+01   0.000000e+00  2.427599e-02) 
12.1	(   7.556740e-01   0.000000e+00  3.554388e-02) (   3.778370e+00   0.000000e+00 -1.040939e-03) (   7.556740e+00   0.000000e+00  4.575873e-03) (   1.133511e+01   0.000000e+00 -9.131183e-03) (   1.511348e+01   0.000000e+00  1.387133e-02) 
12.2	(   7.556740e-01   0.000000e+00  2.105658e-02) (   3.778370e+00   0.000000e+00  1.575416e-02) (   7.556740e+00   0.000000e+00 -1.231678e-02) (   1.133511e+01   0.000000e+00  8.280601e-03) (   1.511348e+01   0.000000e+00  1.616515e-03) 
12.3	(   7.556740e-01   0.000000e+00  4.684203e-03) (   3.778370e+00   0.000000e+00  3.091530e-02) (   7.556740e+00   0.000000e+00 -2.856521e-02) (   1.133511e+01   0.000000e+00  2.479911e-02) (   1.511348e+01   0.000000e+00 -1.163960e-02) 
12.4	(   7.556740e-01   0.000000e+00 -1.227464e-02) (   3.778370e+00   0.000000e+00  4.337868e-02) (   7.556740e+00   0.000000e+00 -4.282649e-02) (   1.133511e+01   0.000000e+00  3.917042e-02) (   1.511348e+01   0.000000e+00 -2.484368e-02) 