           0.1	   3.999897e+00  -1.027537e-04   3.999987e+00  -1.270258e-05   3.999999e+00  -1.412727e-06   4.000000e+00  -1.596809e-07   4.000000e+00  -1.808646e-08
0.2	   3.999708e+00  -2.918797e-04   3.999965e+00  -3.466142e-05   3.999996e+00  -3.920749e-06   4.000000e+00  -4.526125e-07   4.000000e+00  -5.234147e-08
0.3	   3.999490e+00  -5.099815e-04   3.999940e+00  -6.034363e-05   3.999993e+00  -7.024522e-06   3.999999e+00  -8.356395e-07   4.000000e+00  -9.943317e-08
0.4	   3.999289e+00  -7.109951e-04   3.999913e+00  -8.672833e-05   3.999989e+00  -1.052882e-05   3.999999e+00  -1.303419e-06   4.000000e+00  -1.608168e-07
0.5	   3.999154e+00  -8.460638e-04   3.999889e+00  -1.111270e-04   3.999986e+00  -1.428124e-05   3.999998e+00  -1.858150e-06   4.000000e+00  -2.393135e-07
0.6	   3.999151e+00  -8.491869e-04   3.999871e+00  -1.286967e-04   3.999982e+00  -1.787647e-05   3.999998e+00  -2.474554e-06   4.000000e+00  -3.351649e-07
0.7	   3.999323e+00  -6.772207e-04   3.999862e+00  -1.378511e-04   3.999979e+00  -2.124068e-05   3.999997e+00  -3.162286e-06   4.000000e+00  -4.528813e-07
0.8	   3.999713e+00  -2.874445e-04   3.999864e+00  -1.362133e-04   3.999976e+00  -2.418557e-05   3.999996e+00  -3.917918e-06   3.999999e+00  -5.958666e-07
0.9	   4.000349e+00   3.485583e-04   3.999878e+00  -1.215269e-04   3.999974e+00  -2.648845e-05   3.999995e+00  -4.732856e-06   3.999999e+00  -7.672797e-07
1	   4.001239e+00   1.239285e-03   3.999909e+00  -9.066852e-05   3.999972e+00  -2.774851e-05   3.999994e+00  -5.575367e-06   3.999999e+00  -9.679486e-07
1.1	   4.002329e+00   2.329419e-03   3.999956e+00  -4.375724e-05   3.999972e+00  -2.783660e-05   3.999994e+00  -6.438723e-06   3.999999e+00  -1.201666e-06
1.2	   4.003511e+00   3.510879e-03   4.000020e+00   1.969329e-05   3.999974e+00  -2.646863e-05   3.999993e+00  -7.291801e-06   3.999999e+00  -1.469611e-06
1.3	   4.004640e+00   4.639543e-03   4.000105e+00   1.046297e-04   3.999977e+00  -2.276646e-05   3.999992e+00  -8.026374e-06   3.999998e+00  -1.763934e-06
1.4	   4.005521e+00   5.521151e-03   4.000217e+00   2.168368e-04   3.999984e+00  -1.562059e-05   3.999992e+00  -8.493244e-06   3.999998e+00  -2.071188e-06
1.5	   4.005905e+00   5.904888e-03   4.000356e+00   3.555388e-04   3.999996e+00  -4.480592e-06   3.999991e+00  -8.584136e-06   3.999998e+00  -2.381023e-06
1.6	   4.005566e+00   5.566144e-03   4.000517e+00   5.173958e-04   4.000011e+00   1.108475e-05   3.999992e+00  -8.178435e-06   3.999997e+00  -2.679469e-06
1.7	   4.004447e+00   4.447364e-03   4.000705e+00   7.046873e-04   4.000032e+00   3.229733e-05   3.999993e+00  -7.040358e-06   3.999997e+00  -2.936115e-06
1.8	   4.002680e+00   2.680210e-03   4.000916e+00   9.158243e-04   4.000060e+00   6.014342e-05   3.999995e+00  -4.924869e-06   3.999997e+00  -3.114786e-06
1.9	   4.000539e+00   5.393172e-04   4.001139e+00   1.138908e-03   4.000095e+00   9.463558e-05   3.999998e+00  -1.655515e-06   3.999997e+00  -3.180772e-06
2	   3.998442e+00  -1.557534e-03   4.001364e+00   1.363919e-03   4.000136e+00   1.361207e-04   4.000003e+00   3.021740e-06   3.999997e+00  -3.083188e-06
2.1	   3.996810e+00  -3.190328e-03   4.001585e+00   1.584988e-03   4.000186e+00   1.855106e-04   4.000009e+00   9.468391e-06   3.999997e+00  -2.749892e-06
2.2	   3.995860e+00  -4.139678e-03   4.001795e+00   1.795306e-03   4.000244e+00   2.436798e-04   4.000018e+00   1.808955e-05   3.999998e+00  -2.093284e-06
2.3	   3.995703e+00  -4.296517e-03   4.002005e+00   2.005173e-03   4.000313e+00   3.134592e-04   4.000030e+00   2.956476e-05   3.999999e+00  -9.813407e-07
2.4	   3.995939e+00  -4.061367e-03   4.002179e+00   2.179374e-03   4.000393e+00   3.926046e-04   4.000044e+00   4.407234e-05   4.000001e+00   6.788172e-07
2.5	   3.996281e+00  -3.719232e-03   4.002310e+00   2.310204e-03   4.000482e+00   4.816916e-04   4.000062e+00   6.214999e-05   4.000003e+00   3.038277e-06
2.6	   3.996643e+00  -3.356750e-03   4.002406e+00   2.406076e-03   4.000583e+00   5.829319e-04   4.000085e+00   8.457912e-05   4.000006e+00   6.296677e-06
2.7	   3.996717e+00  -3.283108e-03   4.002425e+00   2.425409e-03   4.000692e+00   6.924860e-04   4.000112e+00   1.115160e-04   4.000011e+00   1.060833e-05
2.8	   3.996647e+00  -3.352582e-03   4.002372e+00   2.371563e-03   4.000811e+00   8.109688e-04   4.000144e+00   1.436472e-04   4.000016e+00   1.621261e-05
2.9	   3.996677e+00  -3.322578e-03   4.002219e+00   2.218512e-03   4.000935e+00   9.349049e-04   4.000181e+00   1.812294e-04   4.000023e+00   2.332809e-05
3	   3.997618e+00  -2.381721e-03   4.001965e+00   1.965032e-03   4.001063e+00   1.062536e-03   4.000225e+00   2.247098e-04   4.000032e+00   3.222319e-05
3.1	   4.000554e+00   5.535782e-04   4.001628e+00   1.627997e-03   4.001193e+00   1.192959e-03   4.000275e+00   2.746173e-04   4.000043e+00   4.320486e-05
3.2	   4.006041e+00   6.041447e-03   4.001210e+00   1.210399e-03   4.001322e+00   1.322426e-03   4.000331e+00   3.311286e-04   4.000057e+00   5.657106e-05
3.3	   4.013780e+00   1.377981e-02   4.000734e+00   7.335357e-04   4.001448e+00   1.447834e-03   4.000394e+00   3.944221e-04   4.000073e+00   7.264878e-05
3.4	   4.021926e+00   2.192580e-02   4.000209e+00   2.093164e-04   4.001564e+00   1.563618e-03   4.000464e+00   4.643026e-04   4.000092e+00   9.175012e-05
3.5	   4.027422e+00   2.742166e-02   3.999669e+00  -3.307902e-04   4.001665e+00   1.665102e-03   4.000541e+00   5.405217e-04   4.000114e+00   1.142036e-04
3.6	   4.027246e+00   2.724635e-02   3.999164e+00  -8.361776e-04   4.001749e+00   1.748718e-03   4.000623e+00   6.227656e-04   4.000140e+00   1.403472e-04
3.7	   4.019718e+00   1.971756e-02   3.998767e+00  -1.233215e-03   4.001813e+00   1.812824e-03   4.000711e+00   7.107217e-04   4.000171e+00   1.705304e-04
3.8	   4.007217e+00   7.216530e-03   3.998511e+00  -1.489266e-03   4.001851e+00   1.851366e-03   4.000803e+00   8.033300e-04   4.000205e+00   2.050225e-04
3.9	   3.993916e+00  -6.083848e-03   3.998421e+00  -1.579322e-03   4.001858e+00   1.858245e-03   4.000899e+00   8.992033e-04   4.000244e+00   2.440471e-04
4	   3.982376e+00  -1.762381e-02   3.998545e+00  -1.454862e-03   4.001831e+00   1.831392e-03   4.000997e+00   9.970842e-04   4.000288e+00   2.878208e-04
4.1	   3.974004e+00  -2.599609e-02   3.998935e+00  -1.064930e-03   4.001772e+00   1.771654e-03   4.001096e+00   1.095680e-03   4.000337e+00   3.365217e-04
4.2	   3.969369e+00  -3.063078e-02   3.999558e+00  -4.419512e-04   4.001674e+00   1.674311e-03   4.001193e+00   1.192700e-03   4.000390e+00   3.901657e-04
4.3	   3.968760e+00  -3.123977e-02   4.000385e+00   3.847117e-04   4.001539e+00   1.539290e-03   4.001286e+00   1.285984e-03   4.000449e+00   4.487137e-04
4.4	   3.972063e+00  -2.793661e-02   4.001375e+00   1.374886e-03   4.001370e+00   1.370340e-03   4.001373e+00   1.373426e-03   4.000512e+00   5.120451e-04
4.5	   3.978282e+00  -2.171771e-02   4.002427e+00   2.426582e-03   4.001169e+00   1.169488e-03   4.001452e+00   1.452424e-03   4.000580e+00   5.798723e-04
4.6	   3.986106e+00  -1.389445e-02   4.003429e+00   3.429443e-03   4.000943e+00   9.427699e-04   4.001521e+00   1.520549e-03   4.000652e+00   6.517973e-04
4.7	   3.993938e+00  -6.062231e-03   4.004222e+00   4.221894e-03   4.000694e+00   6.942972e-04   4.001575e+00   1.574935e-03   4.000727e+00   7.272258e-04
4.8	   3.999850e+00  -1.501082e-04   4.004658e+00   4.657788e-03   4.000432e+00   4.323577e-04   4.001613e+00   1.613036e-03   4.000805e+00   8.054340e-04
4.9	   4.001859e+00   1.859366e-03   4.004612e+00   4.611740e-03   4.000168e+00   1.679624e-04   4.001633e+00   1.632632e-03   4.000886e+00   8.855490e-04
5	   4.000157e+00   1.568776e-04   4.003945e+00   3.945187e-03   3.999908e+00  -9.183921e-05   4.001631e+00   1.631289e-03   4.000966e+00   9.664665e-04
5.1	   3.998696e+00  -1.303608e-03   4.002622e+00   2.621623e-03   3.999666e+00  -3.344792e-04   4.001607e+00   1.607287e-03   4.001047e+00   1.046976e-03
5.2	   4.000365e+00   3.649906e-04   4.000622e+00   6.216016e-04   3.999446e+00  -5.537550e-04   4.001559e+00   1.558765e-03   4.001126e+00   1.125629e-03
5.3	   4.005736e+00   5.736131e-03   3.998050e+00  -1.950493e-03   3.999260e+00  -7.402283e-04   4.001485e+00   1.484824e-03   4.001201e+00   1.200869e-03
5.4	   4.013303e+00   1.330287e-02   3.995077e+00  -4.923095e-03   3.999112e+00  -8.884130e-04   4.001385e+00   1.384889e-03   4.001271e+00   1.270981e-03
5.5	   4.021664e+00   2.166418e-02   3.991977e+00  -8.022666e-03   3.999008e+00  -9.924122e-04   4.001259e+00   1.259323e-03   4.001334e+00   1.334193e-03
5.6	   4.029860e+00   2.986028e-02   3.989074e+00  -1.092639e-02   3.998952e+00  -1.048492e-03   4.001109e+00   1.109295e-03   4.001389e+00   1.388669e-03
5.7	   4.035551e+00   3.555065e-02   3.986692e+00  -1.330832e-02   3.998941e+00  -1.058807e-03   4.000937e+00   9.365076e-04   4.001432e+00   1.432497e-03
5.8	   4.036873e+00   3.687350e-02   3.985140e+00  -1.485981e-02   3.998972e+00  -1.028318e-03   4.000743e+00   7.434678e-04   4.001464e+00   1.463774e-03
5.9	   4.034114e+00   3.411419e-02   3.984628e+00  -1.537189e-02   3.999028e+00  -9.718424e-04   4.000533e+00   5.327927e-04   4.001481e+00   1.480603e-03
6	   4.027230e+00   2.723049e-02   3.985328e+00  -1.467166e-02   3.999096e+00  -9.038477e-04   4.000308e+00   3.082243e-04   4.001481e+00   1.481311e-03
6.1	   4.015618e+00   1.561827e-02   3.987330e+00  -1.267018e-02   3.999160e+00  -8.402213e-04   4.000074e+00   7.425658e-05   4.001464e+00   1.464286e-03
6.2	   4.000968e+00   9.682862e-04   3.990753e+00  -9.247269e-03   3.999218e+00  -7.824131e-04   3.999838e+00  -1.622857e-04   4.001428e+00   1.428432e-03
6.3	   3.983632e+00  -1.636783e-02   3.995373e+00  -4.627375e-03   3.999243e+00  -7.565206e-04   3.999603e+00  -3.969101e-04   4.001373e+00   1.372651e-03
6.4	   3.966214e+00  -3.378554e-02   4.000818e+00   8.178582e-04   3.999208e+00  -7.921519e-04   3.999374e+00  -6.255608e-04   4.001296e+00   1.296121e-03
6.5	   3.953445e+00  -4.655520e-02   4.006808e+00   6.808335e-03   3.999102e+00  -8.979021e-04   3.999158e+00  -8.421551e-04   4.001199e+00   1.198650e-03
6.6	   3.948117e+00  -5.188283e-02   4.012938e+00   1.293806e-02   3.998918e+00  -1.081723e-03   3.998959e+00  -1.041429e-03   4.001080e+00   1.080433e-03
6.7	   3.951347e+00  -4.865330e-02   4.018728e+00   1.872786e-02   3.998656e+00  -1.344286e-03   3.998781e+00  -1.218706e-03   4.000942e+00   9.421470e-04
6.8	   3.963041e+00  -3.695933e-02   4.023666e+00   2.366597e-02   3.998321e+00  -1.678725e-03   3.998630e+00  -1.370191e-03   4.000785e+00   7.849603e-04
6.9	   3.982383e+00  -1.761746e-02   4.027254e+00   2.725445e-02   3.997938e+00  -2.062438e-03   3.998508e+00  -1.492340e-03   4.000611e+00   6.106287e-04
7	   4.007698e+00   7.697680e-03   4.028985e+00   2.898495e-02   3.997534e+00  -2.466149e-03   3.998417e+00  -1.583128e-03   4.000421e+00   4.213734e-04
7.1	   4.035268e+00   3.526750e-02   4.028417e+00   2.841700e-02   3.997153e+00  -2.846632e-03   3.998359e+00  -1.641367e-03   4.000220e+00   2.199561e-04
7.2	   4.053323e+00   5.332252e-02   4.025277e+00   2.527709e-02   3.996855e+00  -3.145477e-03   3.998333e+00  -1.666515e-03   4.000010e+00   9.673697e-06
7.3	   4.053092e+00   5.309222e-02   4.019503e+00   1.950318e-02   3.996695e+00  -3.305032e-03   3.998340e+00  -1.659888e-03   3.999794e+00  -2.058404e-04
7.4	   4.039771e+00   3.977132e-02   4.011385e+00   1.138506e-02   3.996731e+00  -3.269025e-03   3.998376e+00  -1.623704e-03   3.999577e+00  -4.226072e-04
7.5	   4.020931e+00   2.093071e-02   4.001712e+00   1.712414e-03   3.997030e+00  -2.969658e-03   3.998440e+00  -1.559991e-03   3.999364e+00  -6.362326e-04
7.6	   4.002746e+00   2.746187e-03   3.991617e+00  -8.382899e-03   3.997649e+00  -2.350817e-03   3.998529e+00  -1.471383e-03   3.999158e+00  -8.421561e-04
7.7	   3.988143e+00  -1.185706e-02   3.982241e+00  -1.775880e-02   3.998610e+00  -1.390366e-03   3.998637e+00  -1.362768e-03   3.998964e+00  -1.035953e-03
7.8	   3.977453e+00  -2.254696e-02   3.974785e+00  -2.521526e-02   3.999924e+00  -7.594716e-05   3.998763e+00  -1.237460e-03   3.998787e+00  -1.213135e-03
7.9	   3.970424e+00  -2.957618e-02   3.970277e+00  -2.972346e-02   4.001583e+00   1.582548e-03   3.998903e+00  -1.097401e-03   3.998631e+00  -1.369322e-03
8	   3.967504e+00  -3.249585e-02   3.969353e+00  -3.064700e-02   4.003543e+00   3.543140e-03   3.999057e+00  -9.434378e-04   3.998500e+00  -1.500383e-03
8.1	   3.968451e+00  -3.154884e-02   3.972047e+00  -2.795341e-02   4.005713e+00   5.713271e-03   3.999223e+00  -7.770857e-04   3.998397e+00  -1.602751e-03
8.2	   3.973285e+00  -2.671498e-02   3.977918e+00  -2.208163e-02   4.007966e+00   7.966459e-03   3.999403e+00  -5.974581e-04   3.998327e+00  -1.673256e-03
8.3	   3.981344e+00  -1.865563e-02   3.985997e+00  -1.400293e-02   4.010147e+00   1.014728e-02   3.999598e+00  -4.016804e-04   3.998291e+00  -1.709359e-03
8.4	   3.991556e+00  -8.444017e-03   3.994818e+00  -5.182420e-03   4.012069e+00   1.206869e-02   3.999814e+00  -1.857634e-04   3.998291e+00  -1.709353e-03
8.5	   4.004601e+00   4.601494e-03   4.002732e+00   2.731511e-03   4.013535e+00   1.353505e-02   4.000056e+00   5.623694e-05   3.998328e+00  -1.671898e-03
8.6	   4.021213e+00   2.121257e-02   4.008384e+00   8.384162e-03   4.014354e+00   1.435439e-02   4.000331e+00   3.313459e-04   3.998403e+00  -1.596661e-03
8.7	   4.037041e+00   3.704098e-02   4.011159e+00   1.115878e-02   4.014351e+00   1.435129e-02   4.000646e+00   6.460344e-04   3.998516e+00  -1.484144e-03
8.8	   4.042607e+00   4.260743e-02   4.011533e+00   1.153346e-02   4.013392e+00   1.339233e-02   4.001007e+00   1.006895e-03   3.998664e+00  -1.335507e-03
8.9	   4.034096e+00   3.409638e-02   4.010838e+00   1.083778e-02   4.011421e+00   1.142136e-02   4.001420e+00   1.419723e-03   3.998847e+00  -1.152515e-03
9	   4.021490e+00   2.148981e-02   4.010540e+00   1.054003e-02   4.008457e+00   8.456783e-03   4.001887e+00   1.886755e-03   3.999062e+00  -9.376544e-04
9.1	   4.013818e+00   1.381838e-02   4.011723e+00   1.172282e-02   4.004619e+00   4.618544e-03   4.002407e+00   2.407055e-03   3.999306e+00  -6.938664e-04
9.2	   4.011758e+00   1.175810e-02   4.014692e+00   1.469240e-02   4.000126e+00   1.257250e-04   4.002976e+00   2.975526e-03   3.999576e+00  -4.244245e-04
9.3	   4.009173e+00   9.172552e-03   4.018617e+00   1.861704e-02   3.995261e+00  -4.738568e-03   4.003580e+00   3.579835e-03   3.999867e+00  -1.330720e-04
9.4	   4.000666e+00   6.659880e-04   4.021644e+00   2.164404e-02   3.990389e+00  -9.611188e-03   4.004202e+00   4.201632e-03   4.000176e+00   1.762843e-04
9.5	   3.988935e+00  -1.106469e-02   4.021472e+00   2.147247e-02   3.985902e+00  -1.409784e-02   4.004815e+00   4.815472e-03   4.000500e+00   4.997547e-04
9.6	   3.978659e+00  -2.134131e-02   4.016125e+00   1.612530e-02   3.982194e+00  -1.780562e-02   4.005388e+00   5.388458e-03   4.000833e+00   8.332978e-04
9.7	   3.973433e+00  -2.656682e-02   4.005537e+00   5.537434e-03   3.979625e+00  -2.037468e-02   4.005882e+00   5.882481e-03   4.001173e+00   1.172974e-03
9.8	   3.975376e+00  -2.462369e-02   3.991840e+00  -8.159503e-03   3.978488e+00  -2.151214e-02   4.006255e+00   6.254706e-03   4.001515e+00   1.514846e-03
9.9	   3.985348e+00  -1.465230e-02   3.978381e+00  -2.161873e-02   3.978969e+00  -2.103107e-02   4.006459e+00   6.459276e-03   4.001855e+00   1.854929e-03
10	   4.000758e+00   7.578414e-04   3.968416e+00  -3.158450e-02   3.981150e+00  -1.884998e-02   4.006451e+00   6.451175e-03   4.002189e+00   2.189190e-03
10.1	   4.012697e+00   1.269683e-02   3.964306e+00  -3.569395e-02   3.984973e+00  -1.502699e-02   4.006189e+00   6.188645e-03   4.002513e+00   2.513481e-03
10.2	   4.011622e+00   1.162250e-02   3.967260e+00  -3.274010e-02   3.990240e+00  -9.759741e-03   4.005639e+00   5.639041e-03   4.002823e+00   2.823286e-03
10.3	   4.003638e+00   3.637981e-03   3.977337e+00  -2.266271e-02   3.996613e+00  -3.386838e-03   4.004781e+00   4.781375e-03   4.003114e+00   3.113606e-03
10.4	   3.996442e+00  -3.557982e-03   3.993307e+00  -6.692835e-03   4.003622e+00   3.621754e-03   4.003611e+00   3.611114e-03   4.003379e+00   3.378862e-03
10.5	   3.987713e+00  -1.228662e-02   4.012555e+00   1.255532e-02   4.010697e+00   1.069660e-02   4.002144e+00   2.144271e-03   4.003613e+00   3.612989e-03
10.6	   3.973850e+00  -2.614969e-02   4.031145e+00   3.114469e-02   4.017200e+00   1.719984e-02   4.000420e+00   4.201758e-04   4.003809e+00   3.808730e-03
10.7	   3.959063e+00  -4.093715e-02   4.044378e+00   4.437802e-02   4.022504e+00   2.250396e-02   3.998501e+00  -1.499083e-03   4.003958e+00   3.958030e-03
10.8	   3.951324e+00  -4.867634e-02   4.048340e+00   4.833959e-02   4.026034e+00   2.603426e-02   3.996472e+00  -3.527570e-03   4.004052e+00   4.052098e-03
10.9	   3.954472e+00  -4.552831e-02   4.041755e+00   4.175459e-02   4.027373e+00   2.737294e-02   3.994443e+00  -5.556947e-03   4.004082e+00   4.081549e-03
11	   3.969754e+00  -3.024562e-02   4.026329e+00   2.632890e-02   4.026312e+00   2.631204e-02   3.992536e+00  -7.464206e-03   4.004036e+00   4.036450e-03
11.1	   3.993843e+00  -6.156918e-03   4.005572e+00   5.571726e-03   4.022882e+00   2.288187e-02   3.990882e+00  -9.117606e-03   4.003907e+00   3.907098e-03
11.2	   4.014920e+00   1.492037e-02   3.983449e+00  -1.655096e-02   4.017391e+00   1.739062e-02   3.989616e+00  -1.038436e-02   4.003685e+00   3.684575e-03
11.3	   4.024502e+00   2.450158e-02   3.963577e+00  -3.642293e-02   4.010375e+00   1.037455e-02   3.988861e+00  -1.113864e-02   4.003361e+00   3.361454e-03
11.4	   4.027964e+00   2.796424e-02   3.948750e+00  -5.125044e-02   4.002501e+00   2.501060e-03   3.988725e+00  -1.127504e-02   4.002933e+00   2.932512e-03
11.5	   4.032593e+00   3.259281e-02   3.940878e+00  -5.912170e-02   3.994536e+00  -5.464356e-03   3.989288e+00  -1.071195e-02   4.002396e+00   2.395805e-03
11.6	   4.041072e+00   4.107175e-02   3.940923e+00  -5.907683e-02   3.987225e+00  -1.277482e-02   3.990592e+00  -9.408396e-03   4.001753e+00   1.753447e-03
11.7	   4.050648e+00   5.064794e-02   3.948916e+00  -5.108360e-02   3.981219e+00  -1.878082e-02   3.992628e+00  -7.371565e-03   4.001012e+00   1.012365e-03
11.8	   4.053509e+00   5.350948e-02   3.964034e+00  -3.596557e-02   3.977042e+00  -2.295777e-02   3.995342e+00  -4.657650e-03   4.000185e+00   1.853301e-04
11.9	   4.043083e+00   4.308314e-02   3.984291e+00  -1.570942e-02   3.975045e+00  -2.495535e-02   3.998619e+00  -1.380829e-03   3.999291e+00  -7.086572e-04
12	   4.028687e+00   2.868718e-02   4.006251e+00   6.251187e-03   3.975361e+00  -2.463910e-02   4.002289e+00   2.289120e-03   3.998356e+00  -1.644182e-03
12.1	   4.014502e+00   1.450181e-02   4.025618e+00   2.561837e-02   3.977934e+00  -2.206625e-02   4.006133e+00   6.132633e-03   3.997411e+00  -2.589411e-03
12.2	   3.998513e+00  -1.487196e-03   4.038531e+00   3.853149e-02   3.982456e+00  -1.754436e-02   4.009888e+00   9.888368e-03   3.996493e+00  -3.506697e-03
12.3	   3.983280e+00  -1.671964e-02   4.042715e+00   4.271527e-02   3.988418e+00  -1.158225e-02   4.013260e+00   1.326037e-02   3.995647e+00  -4.353242e-03
12.4	   3.974344e+00  -2.565635e-02   4.038238e+00   3.823800e-02   3.995128e+00  -4.871909e-03   4.015955e+00   1.595484e-02   3.994917e+00  -5.083452e-03
12.5	   3.974833e+00  -2.516652e-02   4.027898e+00   2.789831e-02   4.001781e+00   1.780888e-03   4.017702e+00   1.770171e-02   3.994348e+00  -5.652057e-03
12.6	   3.984060e+00  -1.594037e-02   4.016182e+00   1.618221e-02   4.007526e+00   7.526153e-03   4.018269e+00   1.826907e-02   3.993986e+00  -6.014243e-03
12.7	   3.994465e+00  -5.534926e-03   4.006974e+00   6.974329e-03   4.011628e+00   1.162813e-02   4.017498e+00   1.749802e-02   3.993870e+00  -6.129923e-03
12.8	   3.999917e+00  -8.258381e-05   4.002630e+00   2.629547e-03   4.013572e+00   1.357194e-02   4.015337e+00   1.533662e-02   3.994035e+00  -5.965464e-03
12.9	   4.004632e+00   4.631530e-03   4.003759e+00   3.758994e-03   4.013187e+00   1.318739e-02   4.011850e+00   1.185040e-02   3.994502e+00  -5.497676e-03
13	   4.013171e+00   1.317113e-02   4.009402e+00   9.401841e-03   4.010663e+00   1.066295e-02   4.007224e+00   7.223869e-03   3.995283e+00  -4.717328e-03
13.1	   4.022143e+00   2.214342e-02   4.016793e+00   1.679316e-02   4.006571e+00   6.571392e-03   4.001762e+00   1.761685e-03   3.996369e+00  -3.631380e-03
13.2	   4.024852e+00   2.485248e-02   4.022217e+00   2.221731e-02   4.001714e+00   1.714173e-03   3.995845e+00  -4.154521e-03   3.997735e+00  -2.264933e-03
13.3	   4.020891e+00   2.089147e-02   4.023532e+00   2.353150e-02   3.996926e+00  -3.074455e-03   3.989927e+00  -1.007281e-02   3.999338e+00  -6.624133e-04
13.4	   4.012432e+00   1.243180e-02   4.021552e+00   2.155199e-02   3.992975e+00  -7.024601e-03   3.984465e+00  -1.553481e-02   4.001112e+00   1.111872e-03
13.5	   4.001809e+00   1.809097e-03   4.018805e+00   1.880542e-02   3.990424e+00  -9.575695e-03   3.979908e+00  -2.009215e-02   4.002975e+00   2.974675e-03
13.6	   3.987735e+00  -1.226501e-02   4.017006e+00   1.700644e-02   3.989608e+00  -1.039190e-02   3.976639e+00  -2.336130e-02   4.004827e+00   4.827244e-03
13.7	   3.968118e+00  -3.188174e-02   4.015563e+00   1.556274e-02   3.990605e+00  -9.394551e-03   3.974961e+00  -2.503931e-02   4.006559e+00   6.559367e-03
13.8	   3.945685e+00  -5.431470e-02   4.012245e+00   1.224473e-02   3.993258e+00  -6.741730e-03   3.975061e+00  -2.493889e-02   4.008051e+00   8.050904e-03
13.9	   3.927372e+00  -7.262841e-02   4.004597e+00   4.597113e-03   3.997257e+00  -2.742725e-03   3.977015e+00  -2.298468e-02   4.009186e+00   9.185648e-03
14	   3.916590e+00  -8.340953e-02   3.991818e+00  -8.181941e-03   4.002185e+00   2.184630e-03   3.980741e+00  -1.925884e-02   4.009855e+00   9.854942e-03
14.1	   3.914754e+00  -8.524567e-02   3.976220e+00  -2.377981e-02   4.007643e+00   7.642676e-03   3.986017e+00  -1.398261e-02   4.009968e+00   9.968305e-03
14.2	   3.921678e+00  -7.832176e-02   3.961316e+00  -3.868383e-02   4.013339e+00   1.333937e-02   3.992486e+00  -7.513882e-03   4.009459e+00   9.459220e-03
14.3	   3.936601e+00  -6.339926e-02   3.950156e+00  -4.984437e-02   4.019105e+00   1.910511e-02   3.999673e+00  -3.268417e-04   4.008299e+00   8.298801e-03
14.4	   3.957739e+00  -4.226133e-02   3.944725e+00  -5.527543e-02   4.024823e+00   2.482260e-02   4.007002e+00   7.001773e-03   4.006501e+00   6.500502e-03
14.5	   3.982917e+00  -1.708326e-02   3.945877e+00  -5.412262e-02   4.030292e+00   3.029164e-02   4.013850e+00   1.385030e-02   4.004125e+00   4.124925e-03
14.6	   4.011026e+00   1.102580e-02   3.953529e+00  -4.647057e-02   4.035063e+00   3.506282e-02   4.019612e+00   1.961156e-02   4.001276e+00   1.275789e-03
14.7	   4.043535e+00   4.353491e-02   3.966448e+00  -3.355245e-02   4.038282e+00   3.828178e-02   4.023764e+00   2.376390e-02   3.998100e+00  -1.899779e-03
14.8	   4.078874e+00   7.887428e-02   3.982341e+00  -1.765854e-02   4.038756e+00   3.875561e-02   4.025932e+00   2.593227e-02   3.994785e+00  -5.215008e-03
14.9	   4.103838e+00   1.038382e-01   3.998236e+00  -1.763518e-03   4.034936e+00   3.493557e-02   4.025962e+00   2.596155e-02   3.991545e+00  -8.454732e-03
15	   4.107930e+00   1.079296e-01   4.010800e+00   1.079968e-02   4.025641e+00   2.564144e-02   4.023915e+00   2.391537e-02   3.988604e+00  -1.139566e-02
15.1	   4.101052e+00   1.010521e-01   4.017789e+00   1.778855e-02   4.010806e+00   1.080566e-02   4.020111e+00   2.011132e-02   3.986186e+00  -1.381417e-02
15.2	   4.085751e+00   8.575092e-02   4.018981e+00   1.898062e-02   3.991863e+00  -8.137262e-03   4.015059e+00   1.505932e-02   3.984497e+00  -1.550328e-02
15.3	   4.063892e+00   6.389198e-02   4.015611e+00   1.561138e-02   3.971552e+00  -2.844802e-02   4.009379e+00   9.378531e-03   3.983717e+00  -1.628311e-02
15.4	   4.044542e+00   4.454178e-02   4.008965e+00   8.964677e-03   3.953006e+00  -4.699433e-02   4.003718e+00   3.717803e-03   3.983972e+00  -1.602842e-02
15.5	   4.031674e+00   3.167418e-02   3.999711e+00  -2.894244e-04   3.938993e+00  -6.100730e-02   3.998693e+00  -1.306646e-03   3.985339e+00  -1.466128e-02
15.6	   4.022900e+00   2.289985e-02   3.989594e+00  -1.040644e-02   3.931463e+00  -6.853676e-02   3.994806e+00  -5.194012e-03   3.987821e+00  -1.217880e-02
15.7	   4.013469e+00   1.346888e-02   3.981517e+00  -1.848345e-02   3.931510e+00  -6.849038e-02   3.992410e+00  -7.590201e-03   3.991348e+00  -8.651819e-03
15.8	   4.002065e+00   2.064807e-03   3.978489e+00  -2.151114e-02   3.939463e+00  -6.053743e-02   3.991676e+00  -8.324380e-03   3.995772e+00  -4.227557e-03
15.9	   3.989178e+00  -1.082182e-02   3.982786e+00  -1.721369e-02   3.954732e+00  -4.526783e-02   3.992584e+00  -7.415500e-03   4.000871e+00   8.711608e-04
16	   3.975740e+00  -2.425961e-02   3.995382e+00  -4.618454e-03   3.975653e+00  -2.434652e-02   3.994919e+00  -5.081204e-03   4.006351e+00   6.350930e-03
16.1	   3.963864e+00  -3.613572e-02   4.015749e+00   1.574941e-02   3.998968e+00  -1.032063e-03   3.998267e+00  -1.732944e-03   4.011865e+00   1.186463e-02
16.2	   3.955559e+00  -4.444128e-02   4.040797e+00   4.079713e-02   4.019736e+00   1.973615e-02   4.002061e+00   2.060623e-03   4.017020e+00   1.702036e-02
16.3	   3.952665e+00  -4.733465e-02   4.064287e+00   6.428652e-02   4.032601e+00   3.260122e-02   4.005636e+00   5.635723e-03   4.021429e+00   2.142919e-02
16.4	   3.954738e+00  -4.526221e-02   4.079069e+00   7.906936e-02   4.034143e+00   3.414301e-02   4.008313e+00   8.313288e-03   4.024719e+00   2.471866e-02
16.5	   3.959889e+00  -4.011092e-02   4.082787e+00   8.278746e-02   4.025164e+00   2.516382e-02   4.009478e+00   9.478186e-03   4.026581e+00   2.658127e-02
16.6	   3.963281e+00  -3.671886e-02   4.079937e+00   7.993740e-02   4.010758e+00   1.075790e-02   4.008685e+00   8.684584e-03   4.026810e+00   2.681045e-02
16.7	   3.962657e+00  -3.734349e-02   4.075947e+00   7.594704e-02   3.996556e+00  -3.444061e-03   4.005730e+00   5.729538e-03   4.025310e+00   2.531050e-02
16.8	   3.960270e+00  -3.973041e-02   4.071664e+00   7.166394e-02   3.986581e+00  -1.341947e-02   4.000738e+00   7.380769e-04   4.022136e+00   2.213641e-02
16.9	   3.960301e+00  -3.969914e-02   4.062100e+00   6.210010e-02   3.983094e+00  -1.690556e-02   3.994115e+00  -5.884788e-03   4.017481e+00   1.748148e-02
17	   3.963346e+00  -3.665420e-02   4.039507e+00   3.950709e-02   3.986998e+00  -1.300168e-02   3.986535e+00  -1.346512e-02   4.011680e+00   1.168026e-02
17.1	   3.965509e+00  -3.449135e-02   4.003970e+00   3.969594e-03   3.998033e+00  -1.966511e-03   3.978806e+00  -2.119389e-02   4.005145e+00   5.145402e-03
17.2	   3.966270e+00  -3.372983e-02   3.965454e+00  -3.454601e-02   4.014616e+00   1.461611e-02   3.971799e+00  -2.820140e-02   3.998362e+00  -1.638231e-03
17.3	   3.967661e+00  -3.233867e-02   3.932466e+00  -6.753357e-02   4.033813e+00   3.381325e-02   3.966327e+00  -3.367333e-02   3.991818e+00  -8.182432e-03
17.4	   3.970439e+00  -2.956091e-02   3.908297e+00  -9.170330e-02   4.051416e+00   5.141590e-02   3.963078e+00  -3.692206e-02   3.985972e+00  -1.402752e-02
17.5	   3.975863e+00  -2.413671e-02   3.893990e+00  -1.060098e-01   4.063094e+00   6.309399e-02   3.962552e+00  -3.744757e-02   3.981219e+00  -1.878074e-02
17.6	   3.983324e+00  -1.667629e-02   3.889460e+00  -1.105404e-01   4.066152e+00   6.615213e-02   3.965064e+00  -3.493622e-02   3.977855e+00  -2.214512e-02
17.7	   3.990969e+00  -9.030908e-03   3.893478e+00  -1.065221e-01   4.060647e+00   6.064742e-02   3.970660e+00  -2.933989e-02   3.976066e+00  -2.393399e-02
17.8	   4.000547e+00   5.472173e-04   3.904807e+00  -9.519308e-02   4.048440e+00   4.844028e-02   3.979133e+00  -2.086729e-02   3.975905e+00  -2.409538e-02
17.9	   4.012547e+00   1.254666e-02   3.921068e+00  -7.893178e-02   4.032220e+00   3.221964e-02   3.990006e+00  -9.994362e-03   3.977303e+00  -2.269654e-02
18	   4.027767e+00   2.776657e-02   3.939296e+00  -6.070439e-02   4.014852e+00   1.485210e-02   4.002568e+00   2.568093e-03   3.980054e+00  -1.994560e-02
18.1	   4.046589e+00   4.658889e-02   3.959019e+00  -4.098082e-02   3.998762e+00  -1.237952e-03   4.015922e+00   1.592209e-02   3.983839e+00  -1.616102e-02
18.2	   4.066604e+00   6.660411e-02   3.979953e+00  -2.004664e-02   3.985680e+00  -1.432009e-02   4.028971e+00   2.897149e-02   3.988255e+00  -1.174503e-02
18.3	   4.084746e+00   8.474601e-02   4.002115e+00   2.114796e-03   3.976653e+00  -2.334659e-02   4.040583e+00   4.058264e-02   3.992840e+00  -7.159731e-03
18.4	   4.099360e+00   9.936031e-02   4.022995e+00   2.299492e-02   3.972083e+00  -2.791668e-02   4.049724e+00   4.972420e-02   3.997133e+00  -2.867208e-03
18.5	   4.110203e+00   1.102034e-01   4.038015e+00   3.801489e-02   3.971698e+00  -2.830162e-02   4.055587e+00   5.558722e-02   4.000706e+00   7.061112e-04
18.6	   4.117642e+00   1.176422e-01   4.045998e+00   4.599799e-02   3.974637e+00  -2.536278e-02   4.057678e+00   5.767789e-02   4.003246e+00   3.245973e-03
18.7	   4.115028e+00   1.150281e-01   4.049980e+00   4.998046e-02   3.979253e+00  -2.074726e-02   4.055887e+00   5.588681e-02   4.004579e+00   4.579233e-03
18.8	   4.094919e+00   9.491942e-02   4.050542e+00   5.054185e-02   3.983370e+00  -1.663025e-02   4.050444e+00   5.044448e-02   4.004710e+00   4.709859e-03
18.9	   4.064432e+00   6.443206e-02   4.044169e+00   4.416886e-02   3.984793e+00  -1.520704e-02   4.041910e+00   4.190998e-02   4.003811e+00   3.811189e-03
19	   4.024536e+00   2.453569e-02   4.031221e+00   3.122069e-02   3.981846e+00  -1.815414e-02   4.031052e+00   3.105219e-02   4.002228e+00   2.228232e-03
19.1	   3.982234e+00  -1.776602e-02   4.019412e+00   1.941187e-02   3.974475e+00  -2.552546e-02   4.018802e+00   1.880165e-02   4.000408e+00   4.083221e-04
19.2	   3.945376e+00  -5.462443e-02   4.015993e+00   1.599287e-02   3.964338e+00  -3.566222e-02   4.006145e+00   6.145043e-03   3.998861e+00  -1.138957e-03
19.3	   3.917277e+00  -8.272335e-02   4.024514e+00   2.451408e-02   3.953770e+00  -4.622960e-02   3.994041e+00  -5.959104e-03   3.998078e+00  -1.922191e-03