           0.1	(   1.146642e+00   0.000000e+00  1.027537e-04) (   5.733208e+00   0.000000e+00  1.270258e-05) (   1.146642e+01   0.000000e+00  1.412727e-06) (   1.719963e+01   0.000000e+00  1.596809e-07) (   2.293283e+01   0.000000e+00  1.808646e-08) 
0.2	(   1.146642e+00   0.000000e+00  2.918797e-04) (   5.733208e+00   0.000000e+00  3.466142e-05) (   1.146642e+01   0.000000e+00  3.920749e-06) (   1.719963e+01   0.000000e+00  4.526125e-07) (   2.293283e+01   0.000000e+00  5.234147e-08) 
0.3	(   1.146642e+00   0.000000e+00  5.099815e-04) (   5.733208e+00   0.000000e+00  6.034363e-05) (   1.146642e+01   0.000000e+00  7.024522e-06) (   1.719963e+01   0.000000e+00  8.356395e-07) (   2.293283e+01   0.000000e+00  9.943317e-08) 
0.4	(   1.146642e+00   0.000000e+00  7.109951e-04) (   5.733208e+00   0.000000e+00  8.672833e-05) (   1.146642e+01   0.000000e+00  1.052882e-05) (   1.719963e+01   0.000000e+00  1.303419e-06) (   2.293283e+01   0.000000e+00  1.608168e-07) 
0.5	(   1.146642e+00   0.000000e+00  8.460638e-04) (   5.733208e+00   0.000000e+00  1.111270e-04) (   1.146642e+01   0.000000e+00  1.428124e-05) (   1.719963e+01   0.000000e+00  1.858150e-06) (   2.293283e+01   0.000000e+00  2.393135e-07) 
0.6	(   1.146642e+00   0.000000e+00  8.491869e-04) (   5.733208e+00   0.000000e+00  1.286967e-04) (   1.146642e+01   0.000000e+00  1.787647e-05) (   1.719963e+01   0.000000e+00  2.474554e-06) (   2.293283e+01   0.000000e+00  3.351649e-07) 
0.7	(   1.146642e+00   0.000000e+00  6.772207e-04) (   5.733208e+00   0.000000e+00  1.378511e-04) (   1.146642e+01   0.000000e+00  2.124068e-05) (   1.719963e+01   0.000000e+00  3.162286e-06) (   2.293283e+01   0.000000e+00  4.528813e-07) 
0.8	(   1.146642e+00   0.000000e+00  2.874445e-04) (   5.733208e+00   0.000000e+00  1.362133e-04) (   1.146642e+01   0.000000e+00  2.418557e-05) (   1.719963e+01   0.000000e+00  3.917918e-06) (   2.293283e+01   0.000000e+00  5.958666e-07) 
0.9	(   1.146642e+00   0.000000e+00 -3.485583e-04) (   5.733208e+00   0.000000e+00  1.215269e-04) (   1.146642e+01   0.000000e+00  2.648845e-05) (   1.719963e+01   0.000000e+00  4.732856e-06) (   2.293283e+01   0.000000e+00  7.672797e-07) 
1	(   1.146642e+00   0.000000e+00 -1.239285e-03) (   5.733208e+00   0.000000e+00  9.066852e-05) (   1.146642e+01   0.000000e+00  2.774851e-05) (   1.719963e+01   0.000000e+00  5.575367e-06) (   2.293283e+01   0.000000e+00  9.679486e-07) 
1.1	(   1.146642e+00   0.000000e+00 -2.329419e-03) (   5.733208e+00   0.000000e+00  4.375724e-05) (   1.146642e+01   0.000000e+00  2.783660e-05) (   1.719963e+01   0.000000e+00  6.438723e-06) (   2.293283e+01   0.000000e+00  1.201666e-06) 
1.2	(   1.146642e+00   0.000000e+00 -3.510879e-03) (   5.733208e+00   0.000000e+00 -1.969329e-05) (   1.146642e+01   0.000000e+00  2.646863e-05) (   1.719963e+01   0.000000e+00  7.291801e-06) (   2.293283e+01   0.000000e+00  1.469611e-06) 
1.3	(   1.146642e+00   0.000000e+00 -4.639543e-03) (   5.733208e+00   0.000000e+00 -1.046297e-04) (   1.146642e+01   0.000000e+00  2.276646e-05) (   1.719963e+01   0.000000e+00  8.026374e-06) (   2.293283e+01   0.000000e+00  1.763934e-06) 
1.4	(   1.146642e+00   0.000000e+00 -5.521151e-03) (   5.733208e+00   0.000000e+00 -2.168368e-04) (   1.146642e+01   0.000000e+00  1.562059e-05) (   1.719963e+01   0.000000e+00  8.493244e-06) (   2.293283e+01   0.000000e+00  2.071188e-06) 
1.5	(   1.146642e+00   0.000000e+00 -5.904888e-03) (   5.733208e+00   0.000000e+00 -3.555388e-04) (   1.146642e+01   0.000000e+00  4.480592e-06) (   1.719963e+01   0.000000e+00  8.584136e-06) (   2.293283e+01   0.000000e+00  2.381023e-06) 
1.6	(   1.146642e+00   0.000000e+00 -5.566144e-03) (   5.733208e+00   0.000000e+00 -5.173958e-04) (   1.146642e+01   0.000000e+00 -1.108475e-05) (   1.719963e+01   0.000000e+00  8.178435e-06) (   2.293283e+01   0.000000e+00  2.679469e-06) 
1.7	(   1.146642e+00   0.000000e+00 -4.447364e-03) (   5.733208e+00   0.000000e+00 -7.046873e-04) (   1.146642e+01   0.000000e+00 -3.229733e-05) (   1.719963e+01   0.000000e+00  7.040358e-06) (   2.293283e+01   0.000000e+00  2.936115e-06) 
1.8	(   1.146642e+00   0.000000e+00 -2.680210e-03) (   5.733208e+00   0.000000e+00 -9.158243e-04) (   1.146642e+01   0.000000e+00 -6.014342e-05) (   1.719963e+01   0.000000e+00  4.924869e-06) (   2.293283e+01   0.000000e+00  3.114786e-06) 
1.9	(   1.146642e+00   0.000000e+00 -5.393172e-04) (   5.733208e+00   0.000000e+00 -1.138908e-03) (   1.146642e+01   0.000000e+00 -9.463558e-05) (   1.719963e+01   0.000000e+00  1.655515e-06) (   2.293283e+01   0.000000e+00  3.180772e-06) 
2	(   1.146642e+00   0.000000e+00  1.557534e-03) (   5.733208e+00   0.000000e+00 -1.363919e-03) (   1.146642e+01   0.000000e+00 -1.361207e-04) (   1.719963e+01   0.000000e+00 -3.021740e-06) (   2.293283e+01   0.000000e+00  3.083188e-06) 
2.1	(   1.146642e+00   0.000000e+00  3.190328e-03) (   5.733208e+00   0.000000e+00 -1.584988e-03) (   1.146642e+01   0.000000e+00 -1.855106e-04) (   1.719963e+01   0.000000e+00 -9.468391e-06) (   2.293283e+01   0.000000e+00  2.749892e-06) 
2.2	(   1.146642e+00   0.000000e+00  4.139678e-03) (   5.733208e+00   0.000000e+00 -1.795306e-03) (   1.146642e+01   0.000000e+00 -2.436798e-04) (   1.719963e+01   0.000000e+00 -1.808955e-05) (   2.293283e+01   0.000000e+00  2.093284e-06) 
2.3	(   1.146642e+00   0.000000e+00  4.296517e-03) (   5.733208e+00   0.000000e+00 -2.005173e-03) (   1.146642e+01   0.000000e+00 -3.134592e-04) (   1.719963e+01   0.000000e+00 -2.956476e-05) (   2.293283e+01   0.000000e+00  9.813407e-07) 
2.4	(   1.146642e+00   0.000000e+00  4.061367e-03) (   5.733208e+00   0.000000e+00 -2.179374e-03) (   1.146642e+01   0.000000e+00 -3.926046e-04) (   1.719963e+01   0.000000e+00 -4.407234e-05) (   2.293283e+01   0.000000e+00 -6.788172e-07) 
2.5	(   1.146642e+00   0.000000e+00  3.719232e-03) (   5.733208e+00   0.000000e+00 -2.310204e-03) (   1.146642e+01   0.000000e+00 -4.816916e-04) (   1.719963e+01   0.000000e+00 -6.214999e-05) (   2.293283e+01   0.000000e+00 -3.038277e-06) 
2.6	(   1.146642e+00   0.000000e+00  3.356750e-03) (   5.733208e+00   0.000000e+00 -2.406076e-03) (   1.146642e+01   0.000000e+00 -5.829319e-04) (   1.719963e+01   0.000000e+00 -8.457912e-05) (   2.293283e+01   0.000000e+00 -6.296677e-06) 
2.7	(   1.146642e+00   0.000000e+00  3.283108e-03) (   5.733208e+00   0.000000e+00 -2.425409e-03) (   1.146642e+01   0.000000e+00 -6.924860e-04) (   1.719963e+01   0.000000e+00 -1.115160e-04) (   2.293283e+01   0.000000e+00 -1.060833e-05) 
2.8	(   1.146642e+00   0.000000e+00  3.352582e-03) (   5.733208e+00   0.000000e+00 -2.371563e-03) (   1.146642e+01   0.000000e+00 -8.109688e-04) (   1.719963e+01   0.000000e+00 -1.436472e-04) (   2.293283e+01   0.000000e+00 -1.621261e-05) 
2.9	(   1.146642e+00   0.000000e+00  3.322578e-03) (   5.733208e+00   0.000000e+00 -2.218512e-03) (   1.146642e+01   0.000000e+00 -9.349049e-04) (   1.719963e+01   0.000000e+00 -1.812294e-04) (   2.293283e+01   0.000000e+00 -2.332809e-05) 
3	(   1.146642e+00   0.000000e+00  2.381721e-03) (   5.733208e+00   0.000000e+00 -1.965032e-03) (   1.146642e+01   0.000000e+00 -1.062536e-03) (   1.719963e+01   0.000000e+00 -2.247098e-04) (   2.293283e+01   0.000000e+00 -3.222319e-05) 
3.1	(   1.146642e+00   0.000000e+00 -5.535782e-04) (   5.733208e+00   0.000000e+00 -1.627997e-03) (   1.146642e+01   0.000000e+00 -1.192959e-03) (   1.719963e+01   0.000000e+00 -2.746173e-04) (   2.293283e+01   0.000000e+00 -4.320486e-05) 
3.2	(   1.146642e+00   0.000000e+00 -6.041447e-03) (   5.733208e+00   0.000000e+00 -1.210399e-03) (   1.146642e+01   0.000000e+00 -1.322426e-03) (   1.719963e+01   0.000000e+00 -3.311286e-04) (   2.293283e+01   0.000000e+00 -5.657106e-05) 
3.3	(   1.146642e+00   0.000000e+00 -1.377981e-02) (   5.733208e+00   0.000000e+00 -7.335357e-04) (   1.146642e+01   0.000000e+00 -1.447834e-03) (   1.719963e+01   0.000000e+00 -3.944221e-04) (   2.293283e+01   0.000000e+00 -7.264878e-05) 
3.4	(   1.146642e+00   0.000000e+00 -2.192580e-02) (   5.733208e+00   0.000000e+00 -2.093164e-04) (   1.146642e+01   0.000000e+00 -1.563618e-03) (   1.719963e+01   0.000000e+00 -4.643026e-04) (   2.293283e+01   0.000000e+00 -9.175012e-05) 
3.5	(   1.146642e+00   0.000000e+00 -2.742166e-02) (   5.733208e+00   0.000000e+00  3.307902e-04) (   1.146642e+01   0.000000e+00 -1.665102e-03) (   1.719963e+01   0.000000e+00 -5.405217e-04) (   2.293283e+01   0.000000e+00 -1.142036e-04) 
3.6	(   1.146642e+00   0.000000e+00 -2.724635e-02) (   5.733208e+00   0.000000e+00  8.361776e-04) (   1.146642e+01   0.000000e+00 -1.748718e-03) (   1.719963e+01   0.000000e+00 -6.227656e-04) (   2.293283e+01   0.000000e+00 -1.403472e-04) 
3.7	(   1.146642e+00   0.000000e+00 -1.971756e-02) (   5.733208e+00   0.000000e+00  1.233215e-03) (   1.146642e+01   0.000000e+00 -1.812824e-03) (   1.719963e+01   0.000000e+00 -7.107217e-04) (   2.293283e+01   0.000000e+00 -1.705304e-04) 
3.8	(   1.146642e+00   0.000000e+00 -7.216530e-03) (   5.733208e+00   0.000000e+00  1.489266e-03) (   1.146642e+01   0.000000e+00 -1.851366e-03) (   1.719963e+01   0.000000e+00 -8.033300e-04) (   2.293283e+01   0.000000e+00 -2.050225e-04) 
3.9	(   1.146642e+00   0.000000e+00  6.083848e-03) (   5.733208e+00   0.000000e+00  1.579322e-03) (   1.146642e+01   0.000000e+00 -1.858245e-03) (   1.719963e+01   0.000000e+00 -8.992033e-04) (   2.293283e+01   0.000000e+00 -2.440471e-04) 
4	(   1.146642e+00   0.000000e+00  1.762381e-02) (   5.733208e+00   0.000000e+00  1.454862e-03) (   1.146642e+01   0.000000e+00 -1.831392e-03) (   1.719963e+01   0.000000e+00 -9.970842e-04) (   2.293283e+01   0.000000e+00 -2.878208e-04) 
4.1	(   1.146642e+00   0.000000e+00  2.599609e-02) (   5.733208e+00   0.000000e+00  1.064930e-03) (   1.146642e+01   0.000000e+00 -1.771654e-03) (   1.719963e+01   0.000000e+00 -1.095680e-03) (   2.293283e+01   0.000000e+00 -3.365217e-04) 
4.2	(   1.146642e+00   0.000000e+00  3.063078e-02) (   5.733208e+00   0.000000e+00  4.419512e-04) (   1.146642e+01   0.000000e+00 -1.674311e-03) (   1.719963e+01   0.000000e+00 -1.192700e-03) (   2.293283e+01   0.000000e+00 -3.901657e-04) 
4.3	(   1.146642e+00   0.000000e+00  3.123977e-02) (   5.733208e+00   0.000000e+00 -3.847117e-04) (   1.146642e+01   0.000000e+00 -1.539290e-03) (   1.719963e+01   0.000000e+00 -1.285984e-03) (   2.293283e+01   0.000000e+00 -4.487137e-04) 
4.4	(   1.146642e+00   0.000000e+00  2.793661e-02) (   5.733208e+00   0.000000e+00 -1.374886e-03) (   1.146642e+01   0.000000e+00 -1.370340e-03) (   1.719963e+01   0.000000e+00 -1.373426e-03) (   2.293283e+01   0.000000e+00 -5.120451e-04) 
4.5	(   1.146642e+00   0.000000e+00  2.171771e-02) (   5.733208e+00   0.000000e+00 -2.426582e-03) (   1.146642e+01   0.000000e+00 -1.169488e-03) (   1.719963e+01   0.000000e+00 -1.452424e-03) (   2.293283e+01   0.000000e+00 -5.798723e-04) 
4.6	(   1.146642e+00   0.000000e+00  1.389445e-02) (   5.733208e+00   0.000000e+00 -3.429443e-03) (   1.146642e+01   0.000000e+00 -9.427699e-04) (   1.719963e+01   0.000000e+00 -1.520549e-03) (   2.293283e+01   0.000000e+00 -6.517973e-04) 
4.7	(   1.146642e+00   0.000000e+00  6.062231e-03) (   5.733208e+00   0.000000e+00 -4.221894e-03) (   1.146642e+01   0.000000e+00 -6.942972e-04) (   1.719963e+01   0.000000e+00 -1.574935e-03) (   2.293283e+01   0.000000e+00 -7.272258e-04) 
4.8	(   1.146642e+00   0.000000e+00  1.501082e-04) (   5.733208e+00   0.000000e+00 -4.657788e-03) (   1.146642e+01   0.000000e+00 -4.323577e-04) (   1.719963e+01   0.000000e+00 -1.613036e-03) (   2.293283e+01   0.000000e+00 -8.054340e-04) 
4.9	(   1.146642e+00   0.000000e+00 -1.859366e-03) (   5.733208e+00   0.000000e+00 -4.611740e-03) (   1.146642e+01   0.000000e+00 -1.679624e-04) (   1.719963e+01   0.000000e+00 -1.632632e-03) (   2.293283e+01   0.000000e+00 -8.855490e-04) 
5	(   1.146642e+00   0.000000e+00 -1.568776e-04) (   5.733208e+00   0.000000e+00 -3.945187e-03) (   1.146642e+01   0.000000e+00  9.183921e-05) (   1.719963e+01   0.000000e+00 -1.631289e-03) (   2.293283e+01   0.000000e+00 -9.664665e-04) 
5.1	(   1.146642e+00   0.000000e+00  1.303608e-03) (   5.733208e+00   0.000000e+00 -2.621623e-03) (   1.146642e+01   0.000000e+00  3.344792e-04) (   1.719963e+01   0.000000e+00 -1.607287e-03) (   2.293283e+01   0.000000e+00 -1.046976e-03) 
5.2	(   1.146642e+00   0.000000e+00 -3.649906e-04) (   5.733208e+00   0.000000e+00 -6.216016e-04) (   1.146642e+01   0.000000e+00  5.537550e-04) (   1.719963e+01   0.000000e+00 -1.558765e-03) (   2.293283e+01   0.000000e+00 -1.125629e-03) 
5.3	(   1.146642e+00   0.000000e+00 -5.736131e-03) (   5.733208e+00   0.000000e+00  1.950493e-03) (   1.146642e+01   0.000000e+00  7.402283e-04) (   1.719963e+01   0.000000e+00 -1.484824e-03) (   2.293283e+01   0.000000e+00 -1.200869e-03) 
5.4	(   1.146642e+00   0.000000e+00 -1.330287e-02) (   5.733208e+00   0.000000e+00  4.923095e-03) (   1.146642e+01   0.000000e+00  8.884130e-04) (   1.719963e+01   0.000000e+00 -1.384889e-03) (   2.293283e+01   0.000000e+00 -1.270981e-03) 
5.5	(   1.146642e+00   0.000000e+00 -2.166418e-02) (   5.733208e+00   0.000000e+00  8.022666e-03) (   1.146642e+01   0.000000e+00  9.924122e-04) (   1.719963e+01   0.000000e+00 -1.259323e-03) (   2.293283e+01   0.000000e+00 -1.334193e-03) 
5.6	(   1.146642e+00   0.000000e+00 -2.986028e-02) (   5.733208e+00   0.000000e+00  1.092639e-02) (   1.146642e+01   0.000000e+00  1.048492e-03) (   1.719963e+01   0.000000e+00 -1.109295e-03) (   2.293283e+01   0.000000e+00 -1.388669e-03) 
5.7	(   1.146642e+00   0.000000e+00 -3.555065e-02) (   5.733208e+00   0.000000e+00  1.330832e-02) (   1.146642e+01   0.000000e+00  1.058807e-03) (   1.719963e+01   0.000000e+00 -9.365076e-04) (   2.293283e+01   0.000000e+00 -1.432497e-03) 
5.8	(   1.146642e+00   0.000000e+00 -3.687350e-02) (   5.733208e+00   0.000000e+00  1.485981e-02) (   1.146642e+01   0.000000e+00  1.028318e-03) (   1.719963e+01   0.000000e+00 -7.434678e-04) (   2.293283e+01   0.000000e+00 -1.463774e-03) 
5.9	(   1.146642e+00   0.000000e+00 -3.411419e-02) (   5.733208e+00   0.000000e+00  1.537189e-02) (   1.146642e+01   0.000000e+00  9.718424e-04) (   1.719963e+01   0.000000e+00 -5.327927e-04) (   2.293283e+01   0.000000e+00 -1.480603e-03) 
6	(   1.146642e+00   0.000000e+00 -2.723049e-02) (   5.733208e+00   0.000000e+00  1.467166e-02) (   1.146642e+01   0.000000e+00  9.038477e-04) (   1.719963e+01   0.000000e+00 -3.082243e-04) (   2.293283e+01   0.000000e+00 -1.481311e-03) 
6.1	(   1.146642e+00   0.000000e+00 -1.561827e-02) (   5.733208e+00   0.000000e+00  1.267018e-02) (   1.146642e+01   0.000000e+00  8.402213e-04) (   1.719963e+01   0.000000e+00 -7.425658e-05) (   2.293283e+01   0.000000e+00 -1.464286e-03) 
6.2	(   1.146642e+00   0.000000e+00 -9.682862e-04) (   5.733208e+00   0.000000e+00  9.247269e-03) (   1.146642e+01   0.000000e+00  7.824131e-04) (   1.719963e+01   0.000000e+00  1.622857e-04) (   2.293283e+01   0.000000e+00 -1.428432e-03) 
6.3	(   1.146642e+00   0.000000e+00  1.636783e-02) (   5.733208e+00   0.000000e+00  4.627375e-03) (   1.146642e+01   0.000000e+00  7.565206e-04) (   1.719963e+01   0.000000e+00  3.969101e-04) (   2.293283e+01   0.000000e+00 -1.372651e-03) 
6.4	(   1.146642e+00   0.000000e+00  3.378554e-02) (   5.733208e+00   0.000000e+00 -8.178582e-04) (   1.146642e+01   0.000000e+00  7.921519e-04) (   1.719963e+01   0.000000e+00  6.255608e-04) (   2.293283e+01   0.000000e+00 -1.296121e-03) 
6.5	(   1.146642e+00   0.000000e+00  4.655520e-02) (   5.733208e+00   0.000000e+00 -6.808335e-03) (   1.146642e+01   0.000000e+00  8.979021e-04) (   1.719963e+01   0.000000e+00  8.421551e-04) (   2.293283e+01   0.000000e+00 -1.198650e-03) 
6.6	(   1.146642e+00   0.000000e+00  5.188283e-02) (   5.733208e+00   0.000000e+00 -1.293806e-02) (   1.146642e+01   0.000000e+00  1.081723e-03) (   1.719963e+01   0.000000e+00  1.041429e-03) (   2.293283e+01   0.000000e+00 -1.080433e-03) 
6.7	(   1.146642e+00   0.000000e+00  4.865330e-02) (   5.733208e+00   0.000000e+00 -1.872786e-02) (   1.146642e+01   0.000000e+00  1.344286e-03) (   1.719963e+01   0.000000e+00  1.218706e-03) (   2.293283e+01   0.000000e+00 -9.421470e-04) 
6.8	(   1.146642e+00   0.000000e+00  3.695933e-02) (   5.733208e+00   0.000000e+00 -2.366597e-02) (   1.146642e+01   0.000000e+00  1.678725e-03) (   1.719963e+01   0.000000e+00  1.370191e-03) (   2.293283e+01   0.000000e+00 -7.849603e-04) 
6.9	(   1.146642e+00   0.000000e+00  1.761746e-02) (   5.733208e+00   0.000000e+00 -2.725445e-02) (   1.146642e+01   0.000000e+00  2.062438e-03) (   1.719963e+01   0.000000e+00  1.492340e-03) (   2.293283e+01   0.000000e+00 -6.106287e-04) 
7	(   1.146642e+00   0.000000e+00 -7.697680e-03) (   5.733208e+00   0.000000e+00 -2.898495e-02) (   1.146642e+01   0.000000e+00  2.466149e-03) (   1.719963e+01   0.000000e+00  1.583128e-03) (   2.293283e+01   0.000000e+00 -4.213734e-04) 
7.1	(   1.146642e+00   0.000000e+00 -3.526750e-02) (   5.733208e+00   0.000000e+00 -2.841700e-02) (   1.146642e+01   0.000000e+00  2.846632e-03) (   1.719963e+01   0.000000e+00  1.641367e-03) (   2.293283e+01   0.000000e+00 -2.199561e-04) 
7.2	(   1.146642e+00   0.000000e+00 -5.332252e-02) (   5.733208e+00   0.000000e+00 -2.527709e-02) (   1.146642e+01   0.000000e+00  3.145477e-03) (   1.719963e+01   0.000000e+00  1.666515e-03) (   2.293283e+01   0.000000e+00 -9.673697e-06) 
7.3	(   1.146642e+00   0.000000e+00 -5.309222e-02) (   5.733208e+00   0.000000e+00 -1.950318e-02) (   1.146642e+01   0.000000e+00  3.305032e-03) (   1.719963e+01   0.000000e+00  1.659888e-03) (   2.293283e+01   0.000000e+00  2.058404e-04) 
7.4	(   1.146642e+00   0.000000e+00 -3.977132e-02) (   5.733208e+00   0.000000e+00 -1.138506e-02) (   1.146642e+01   0.000000e+00  3.269025e-03) (   1.719963e+01   0.000000e+00  1.623704e-03) (   2.293283e+01   0.000000e+00  4.226072e-04) 
7.5	(   1.146642e+00   0.000000e+00 -2.093071e-02) (   5.733208e+00   0.000000e+00 -1.712414e-03) (   1.146642e+01   0.000000e+00  2.969658e-03) (   1.719963e+01   0.000000e+00  1.559991e-03) (   2.293283e+01   0.000000e+00  6.362326e-04) 
7.6	(   1.146642e+00   0.000000e+00 -2.746187e-03) (   5.733208e+00   0.000000e+00  8.382899e-03) (   1.146642e+01   0.000000e+00  2.350817e-03) (   1.719963e+01   0.000000e+00  1.471383e-03) (   2.293283e+01   0.000000e+00  8.421561e-04) 
7.7	(   1.146642e+00   0.000000e+00  1.185706e-02) (   5.733208e+00   0.000000e+00  1.775880e-02) (   1.146642e+01   0.000000e+00  1.390366e-03) (   1.719963e+01   0.000000e+00  1.362768e-03) (   2.293283e+01   0.000000e+00  1.035953e-03) 
7.8	(   1.146642e+00   0.000000e+00  2.254696e-02) (   5.733208e+00   0.000000e+00  2.521526e-02) (   1.146642e+01   0.000000e+00  7.594716e-05) (   1.719963e+01   0.000000e+00  1.237460e-03) (   2.293283e+01   0.000000e+00  1.213135e-03) 
7.9	(   1.146642e+00   0.000000e+00  2.957618e-02) (   5.733208e+00   0.000000e+00  2.972346e-02) (   1.146642e+01   0.000000e+00 -1.582548e-03) (   1.719963e+01   0.000000e+00  1.097401e-03) (   2.293283e+01   0.000000e+00  1.369322e-03) 
8	(   1.146642e+00   0.000000e+00  3.249585e-02) (   5.733208e+00   0.000000e+00  3.064700e-02) (   1.146642e+01   0.000000e+00 -3.543140e-03) (   1.719963e+01   0.000000e+00  9.434378e-04) (   2.293283e+01   0.000000e+00  1.500383e-03) 
8.1	(   1.146642e+00   0.000000e+00  3.154884e-02) (   5.733208e+00   0.000000e+00  2.795341e-02) (   1.146642e+01   0.000000e+00 -5.713271e-03) (   1.719963e+01   0.000000e+00  7.770857e-04) (   2.293283e+01   0.000000e+00  1.602751e-03) 
8.2	(   1.146642e+00   0.000000e+00  2.671498e-02) (   5.733208e+00   0.000000e+00  2.208163e-02) (   1.146642e+01   0.000000e+00 -7.966459e-03) (   1.719963e+01   0.000000e+00  5.974581e-04) (   2.293283e+01   0.000000e+00  1.673256e-03) 
8.3	(   1.146642e+00   0.000000e+00  1.865563e-02) (   5.733208e+00   0.000000e+00  1.400293e-02) (   1.146642e+01   0.000000e+00 -1.014728e-02) (   1.719963e+01   0.000000e+00  4.016804e-04) (   2.293283e+01   0.000000e+00  1.709359e-03) 
8.4	(   1.146642e+00   0.000000e+00  8.444017e-03) (   5.733208e+00   0.000000e+00  5.182420e-03) (   1.146642e+01   0.000000e+00 -1.206869e-02) (   1.719963e+01   0.000000e+00  1.857634e-04) (   2.293283e+01   0.000000e+00  1.709353e-03) 
8.5	(   1.146642e+00   0.000000e+00 -4.601494e-03) (   5.733208e+00   0.000000e+00 -2.731511e-03) (   1.146642e+01   0.000000e+00 -1.353505e-02) (   1.719963e+01   0.000000e+00 -5.623694e-05) (   2.293283e+01   0.000000e+00  1.671898e-03) 
8.6	(   1.146642e+00   0.000000e+00 -2.121257e-02) (   5.733208e+00   0.000000e+00 -8.384162e-03) (   1.146642e+01   0.000000e+00 -1.435439e-02) (   1.719963e+01   0.000000e+00 -3.313459e-04) (   2.293283e+01   0.000000e+00  1.596661e-03) 
8.7	(   1.146642e+00   0.000000e+00 -3.704098e-02) (   5.733208e+00   0.000000e+00 -1.115878e-02) (   1.146642e+01   0.000000e+00 -1.435129e-02) (   1.719963e+01   0.000000e+00 -6.460344e-04) (   2.293283e+01   0.000000e+00  1.484144e-03) 
8.8	(   1.146642e+00   0.000000e+00 -4.260743e-02) (   5.733208e+00   0.000000e+00 -1.153346e-02) (   1.146642e+01   0.000000e+00 -1.339233e-02) (   1.719963e+01   0.000000e+00 -1.006895e-03) (   2.293283e+01   0.000000e+00  1.335507e-03) 
8.9	(   1.146642e+00   0.000000e+00 -3.409638e-02) (   5.733208e+00   0.000000e+00 -1.083778e-02) (   1.146642e+01   0.000000e+00 -1.142136e-02) (   1.719963e+01   0.000000e+00 -1.419723e-03) (   2.293283e+01   0.000000e+00  1.152515e-03) 
9	(   1.146642e+00   0.000000e+00 -2.148981e-02) (   5.733208e+00   0.000000e+00 -1.054003e-02) (   1.146642e+01   0.000000e+00 -8.456783e-03) (   1.719963e+01   0.000000e+00 -1.886755e-03) (   2.293283e+01   0.000000e+00  9.376544e-04) 
9.1	(   1.146642e+00   0.000000e+00 -1.381838e-02) (   5.733208e+00   0.000000e+00 -1.172282e-02) (   1.146642e+01   0.000000e+00 -4.618544e-03) (   1.719963e+01   0.000000e+00 -2.407055e-03) (   2.293283e+01   0.000000e+00  6.938664e-04) 
9.2	(   1.146642e+00   0.000000e+00 -1.175810e-02) (   5.733208e+00   0.000000e+00 -1.469240e-02) (   1.146642e+01   0.000000e+00 -1.257250e-04) (   1.719963e+01   0.000000e+00 -2.975526e-03) (   2.293283e+01   0.000000e+00  4.244245e-04) 
9.3	(   1.146642e+00   0.000000e+00 -9.172552e-03) (   5.733208e+00   0.000000e+00 -1.861704e-02) (   1.146642e+01   0.000000e+00  4.738568e-03) (   1.719963e+01   0.000000e+00 -3.579835e-03) (   2.293283e+01   0.000000e+00  1.330720e-04) 
9.4	(   1.146642e+00   0.000000e+00 -6.659880e-04) (   5.733208e+00   0.000000e+00 -2.164404e-02) (   1.146642e+01   0.000000e+00  9.611188e-03) (   1.719963e+01   0.000000e+00 -4.201632e-03) (   2.293283e+01   0.000000e+00 -1.762843e-04) 
9.5	(   1.146642e+00   0.000000e+00  1.106469e-02) (   5.733208e+00   0.000000e+00 -2.147247e-02) (   1.146642e+01   0.000000e+00  1.409784e-02) (   1.719963e+01   0.000000e+00 -4.815472e-03) (   2.293283e+01   0.000000e+00 -4.997547e-04) 
9.6	(   1.146642e+00   0.000000e+00  2.134131e-02) (   5.733208e+00   0.000000e+00 -1.612530e-02) (   1.146642e+01   0.000000e+00  1.780562e-02) (   1.719963e+01   0.000000e+00 -5.388458e-03) (   2.293283e+01   0.000000e+00 -8.332978e-04) 
9.7	(   1.146642e+00   0.000000e+00  2.656682e-02) (   5.733208e+00   0.000000e+00 -5.537434e-03) (   1.146642e+01   0.000000e+00  2.037468e-02) (   1.719963e+01   0.000000e+00 -5.882481e-03) (   2.293283e+01   0.000000e+00 -1.172974e-03) 
9.8	(   1.146642e+00   0.000000e+00  2.462369e-02) (   5.733208e+00   0.000000e+00  8.159503e-03) (   1.146642e+01   0.000000e+00  2.151214e-02) (   1.719963e+01   0.000000e+00 -6.254706e-03) (   2.293283e+01   0.000000e+00 -1.514846e-03) 
9.9	(   1.146642e+00   0.000000e+00  1.465230e-02) (   5.733208e+00   0.000000e+00  2.161873e-02) (   1.146642e+01   0.000000e+00  2.103107e-02) (   1.719963e+01   0.000000e+00 -6.459276e-03) (   2.293283e+01   0.000000e+00 -1.854929e-03) 
10	(   1.146642e+00   0.000000e+00 -7.578414e-04) (   5.733208e+00   0.000000e+00  3.158450e-02) (   1.146642e+01   0.000000e+00  1.884998e-02) (   1.719963e+01   0.000000e+00 -6.451175e-03) (   2.293283e+01   0.000000e+00 -2.189190e-03) 
10.1	(   1.146642e+00   0.000000e+00 -1.269683e-02) (   5.733208e+00   0.000000e+00  3.569395e-02) (   1.146642e+01   0.000000e+00  1.502699e-02) (   1.719963e+01   0.000000e+00 -6.188645e-03) (   2.293283e+01   0.000000e+00 -2.513481e-03) 
10.2	(   1.146642e+00   0.000000e+00 -1.162250e-02) (   5.733208e+00   0.000000e+00  3.274010e-02) (   1.146642e+01   0.000000e+00  9.759741e-03) (   1.719963e+01   0.000000e+00 -5.639041e-03) (   2.293283e+01   0.000000e+00 -2.823286e-03) 
10.3	(   1.146642e+00   0.000000e+00 -3.637981e-03) (   5.733208e+00   0.000000e+00  2.266271e-02) (   1.146642e+01   0.000000e+00  3.386838e-03) (   1.719963e+01   0.000000e+00 -4.781375e-03) (   2.293283e+01   0.000000e+00 -3.113606e-03) 
10.4	(   1.146642e+00   0.000000e+00  3.557982e-03) (   5.733208e+00   0.000000e+00  6.692835e-03) (   1.146642e+01   0.000000e+00 -3.621754e-03) (   1.719963e+01   0.000000e+00 -3.611114e-03) (   2.293283e+01   0.000000e+00 -3.378862e-03) 
10.5	(   1.146642e+00   0.000000e+00  1.228662e-02) (   5.733208e+00   0.000000e+00 -1.255532e-02) (   1.146642e+01   0.000000e+00 -1.069660e-02) (   1.719963e+01   0.000000e+00 -2.144271e-03) (   2.293283e+01   0.000000e+00 -3.612989e-03) 
10.6	(   1.146642e+00   0.000000e+00  2.614969e-02) (   5.733208e+00   0.000000e+00 -3.114469e-02) (   1.146642e+01   0.000000e+00 -1.719984e-02) (   1.719963e+01   0.000000e+00 -4.201758e-04) (   2.293283e+01   0.000000e+00 -3.808730e-03) 
10.7	(   1.146642e+00   0.000000e+00  4.093715e-02) (   5.733208e+00   0.000000e+00 -4.437802e-02) (   1.146642e+01   0.000000e+00 -2.250396e-02) (   1.719963e+01   0.000000e+00  1.499083e-03) (   2.293283e+01   0.000000e+00 -3.958030e-03) 
10.8	(   1.146642e+00   0.000000e+00  4.867634e-02) (   5.733208e+00   0.000000e+00 -4.833959e-02) (   1.146642e+01   0.000000e+00 -2.603426e-02) (   1.719963e+01   0.000000e+00  3.527570e-03) (   2.293283e+01   0.000000e+00 -4.052098e-03) 
10.9	(   1.146642e+00   0.000000e+00  4.552831e-02) (   5.733208e+00   0.000000e+00 -4.175459e-02) (   1.146642e+01   0.000000e+00 -2.737294e-02) (   1.719963e+01   0.000000e+00  5.556947e-03) (   2.293283e+01   0.000000e+00 -4.081549e-03) 
11	(   1.146642e+00   0.000000e+00  3.024562e-02) (   5.733208e+00   0.000000e+00 -2.632890e-02) (   1.146642e+01   0.000000e+00 -2.631204e-02) (   1.719963e+01   0.000000e+00  7.464206e-03) (   2.293283e+01   0.000000e+00 -4.036450e-03) 
11.1	(   1.146642e+00   0.000000e+00  6.156918e-03) (   5.733208e+00   0.000000e+00 -5.571726e-03) (   1.146642e+01   0.000000e+00 -2.288187e-02) (   1.719963e+01   0.000000e+00  9.117606e-03) (   2.293283e+01   0.000000e+00 -3.907098e-03) 
11.2	(   1.146642e+00   0.000000e+00 -1.492037e-02) (   5.733208e+00   0.000000e+00  1.655096e-02) (   1.146642e+01   0.000000e+00 -1.739062e-02) (   1.719963e+01   0.000000e+00  1.038436e-02) (   2.293283e+01   0.000000e+00 -3.684575e-03) 
11.3	(   1.146642e+00   0.000000e+00 -2.450158e-02) (   5.733208e+00   0.000000e+00  3.642293e-02) (   1.146642e+01   0.000000e+00 -1.037455e-02) (   1.719963e+01   0.000000e+00  1.113864e-02) (   2.293283e+01   0.000000e+00 -3.361454e-03) 
11.4	(   1.146642e+00   0.000000e+00 -2.796424e-02) (   5.733208e+00   0.000000e+00  5.125044e-02) (   1.146642e+01   0.000000e+00 -2.501060e-03) (   1.719963e+01   0.000000e+00  1.127504e-02) (   2.293283e+01   0.000000e+00 -2.932512e-03) 
11.5	(   1.146642e+00   0.000000e+00 -3.259281e-02) (   5.733208e+00   0.000000e+00  5.912170e-02) (   1.146642e+01   0.000000e+00  5.464356e-03) (   1.719963e+01   0.000000e+00  1.071195e-02) (   2.293283e+01   0.000000e+00 -2.395805e-03) 
11.6	(   1.146642e+00   0.000000e+00 -4.107175e-02) (   5.733208e+00   0.000000e+00  5.907683e-02) (   1.146642e+01   0.000000e+00  1.277482e-02) (   1.719963e+01   0.000000e+00  9.408396e-03) (   2.293283e+01   0.000000e+00 -1.753447e-03) 
11.7	(   1.146642e+00   0.000000e+00 -5.064794e-02) (   5.733208e+00   0.000000e+00  5.108360e-02) (   1.146642e+01   0.000000e+00  1.878082e-02) (   1.719963e+01   0.000000e+00  7.371565e-03) (   2.293283e+01   0.000000e+00 -1.012365e-03) 
11.8	(   1.146642e+00   0.000000e+00 -5.350948e-02) (   5.733208e+00   0.000000e+00  3.596557e-02) (   1.146642e+01   0.000000e+00  2.295777e-02) (   1.719963e+01   0.000000e+00  4.657650e-03) (   2.293283e+01   0.000000e+00 -1.853301e-04) 
11.9	(   1.146642e+00   0.000000e+00 -4.308314e-02) (   5.733208e+00   0.000000e+00  1.570942e-02) (   1.146642e+01   0.000000e+00  2.495535e-02) (   1.719963e+01   0.000000e+00  1.380829e-03) (   2.293283e+01   0.000000e+00  7.086572e-04) 
12	(   1.146642e+00   0.000000e+00 -2.868718e-02) (   5.733208e+00   0.000000e+00 -6.251187e-03) (   1.146642e+01   0.000000e+00  2.463910e-02) (   1.719963e+01   0.000000e+00 -2.289120e-03) (   2.293283e+01   0.000000e+00  1.644182e-03) 
12.1	(   1.146642e+00   0.000000e+00 -1.450181e-02) (   5.733208e+00   0.000000e+00 -2.561837e-02) (   1.146642e+01   0.000000e+00  2.206625e-02) (   1.719963e+01   0.000000e+00 -6.132633e-03) (   2.293283e+01   0.000000e+00  2.589411e-03) 
12.2	(   1.146642e+00   0.000000e+00  1.487196e-03) (   5.733208e+00   0.000000e+00 -3.853149e-02) (   1.146642e+01   0.000000e+00  1.754436e-02) (   1.719963e+01   0.000000e+00 -9.888368e-03) (   2.293283e+01   0.000000e+00  3.506697e-03) 
12.3	(   1.146642e+00   0.000000e+00  1.671964e-02) (   5.733208e+00   0.000000e+00 -4.271527e-02) (   1.146642e+01   0.000000e+00  1.158225e-02) (   1.719963e+01   0.000000e+00 -1.326037e-02) (   2.293283e+01   0.000000e+00  4.353242e-03) 
12.4	(   1.146642e+00   0.000000e+00  2.565635e-02) (   5.733208e+00   0.000000e+00 -3.823800e-02) (   1.146642e+01   0.000000e+00  4.871909e-03) (   1.719963e+01   0.000000e+00 -1.595484e-02) (   2.293283e+01   0.000000e+00  5.083452e-03) 