           0.1	   3.999974e+00  -2.644743e-05   3.999997e+00  -3.470214e-06   4.000000e+00  -3.851083e-07   4.000000e+00  -4.326709e-08   4.000000e+00  -4.870703e-09
0.2	   3.999830e+00  -1.703908e-04   3.999978e+00  -2.183962e-05   3.999998e+00  -2.448010e-06   4.000000e+00  -2.786119e-07   4.000000e+00  -3.177088e-08
0.3	   3.999499e+00  -5.005816e-04   3.999937e+00  -6.348497e-05   3.999993e+00  -7.221106e-06   3.999999e+00  -8.355316e-07   4.000000e+00  -9.683235e-08
0.4	   3.998931e+00  -1.068747e-03   3.999865e+00  -1.354441e-04   3.999984e+00  -1.571080e-05   3.999998e+00  -1.855494e-06   4.000000e+00  -2.193186e-07
0.5	   3.998099e+00  -1.900766e-03   3.999757e+00  -2.427218e-04   3.999971e+00  -2.885802e-05   3.999997e+00  -3.492995e-06   4.000000e+00  -4.225255e-07
0.6	   3.997003e+00  -2.996623e-03   3.999611e+00  -3.889364e-04   3.999952e+00  -4.763773e-05   3.999994e+00  -5.931930e-06   3.999999e+00  -7.364850e-07
0.7	   3.995673e+00  -4.326711e-03   3.999423e+00  -5.765156e-04   3.999927e+00  -7.310264e-05   3.999991e+00  -9.396060e-06   3.999999e+00  -1.200185e-06
0.8	   3.994176e+00  -5.824450e-03   3.999194e+00  -8.063350e-04   3.999894e+00  -1.063586e-04   3.999986e+00  -1.415231e-05   3.999998e+00  -1.863215e-06
0.9	   3.992618e+00  -7.381941e-03   3.998922e+00  -1.077698e-03   3.999851e+00  -1.485684e-04   3.999979e+00  -2.051744e-05   3.999997e+00  -2.788009e-06
1	   3.991156e+00  -8.844369e-03   3.998612e+00  -1.387754e-03   3.999799e+00  -2.008838e-04   3.999971e+00  -2.885691e-05   3.999996e+00  -4.051490e-06
1.1	   3.989990e+00  -1.001030e-02   3.998269e+00  -1.731158e-03   3.999736e+00  -2.643913e-04   3.999960e+00  -3.958506e-05   3.999994e+00  -5.747098e-06
1.2	   3.989346e+00  -1.065366e-02   3.997900e+00  -2.100218e-03   3.999660e+00  -3.401020e-04   3.999947e+00  -5.316964e-05   3.999992e+00  -7.987568e-06
1.3	   3.989470e+00  -1.053003e-02   3.997519e+00  -2.481468e-03   3.999571e+00  -4.285243e-04   3.999930e+00  -7.008838e-05   3.999989e+00  -1.090254e-05
1.4	   3.990597e+00  -9.402698e-03   3.997141e+00  -2.858899e-03   3.999470e+00  -5.299438e-04   3.999909e+00  -9.086106e-05   3.999985e+00  -1.464461e-05
1.5	   3.992881e+00  -7.119000e-03   3.996787e+00  -3.213246e-03   3.999356e+00  -6.442659e-04   3.999884e+00  -1.160300e-04   3.999981e+00  -1.938988e-05
1.6	   3.996388e+00  -3.611908e-03   3.996482e+00  -3.518359e-03   3.999229e+00  -7.705225e-04   3.999854e+00  -1.460996e-04   3.999975e+00  -2.533362e-05
1.7	   4.001012e+00   1.012105e-03   3.996251e+00  -3.749063e-03   3.999092e+00  -9.075747e-04   3.999818e+00  -1.816047e-04   3.999967e+00  -3.270035e-05
1.8	   4.006447e+00   6.446789e-03   3.996117e+00  -3.883426e-03   3.998946e+00  -1.054196e-03   3.999777e+00  -2.231123e-04   3.999958e+00  -4.174620e-05
1.9	   4.012380e+00   1.238016e-02   3.996120e+00  -3.880343e-03   3.998794e+00  -1.206417e-03   3.999729e+00  -2.709073e-04   3.999947e+00  -5.272566e-05
2	   4.018340e+00   1.834043e-02   3.996293e+00  -3.707051e-03   3.998640e+00  -1.360472e-03   3.999675e+00  -3.252924e-04   3.999934e+00  -6.592520e-05
2.1	   4.023798e+00   2.379833e-02   3.996661e+00  -3.338823e-03   3.998488e+00  -1.512186e-03   3.999614e+00  -3.864972e-04   3.999918e+00  -8.165304e-05
2.2	   4.028300e+00   2.830049e-02   3.997248e+00  -2.751955e-03   3.998344e+00  -1.656137e-03   3.999545e+00  -4.545496e-04   3.999900e+00  -1.002235e-04
2.3	   4.031495e+00   3.149549e-02   3.998077e+00  -1.923194e-03   3.998215e+00  -1.785298e-03   3.999471e+00  -5.291980e-04   3.999878e+00  -1.219453e-04
2.4	   4.033031e+00   3.303080e-02   3.999159e+00  -8.405343e-04   3.998108e+00  -1.892123e-03   3.999390e+00  -6.099666e-04   3.999853e+00  -1.471232e-04
2.5	   4.032551e+00   3.255056e-02   4.000497e+00   4.965378e-04   3.998031e+00  -1.968501e-03   3.999304e+00  -6.960802e-04   3.999824e+00  -1.760432e-04
2.6	   4.029876e+00   2.987585e-02   4.002093e+00   2.092644e-03   3.997996e+00  -2.003577e-03   3.999214e+00  -7.861886e-04   3.999791e+00  -2.089320e-04
2.7	   4.024978e+00   2.497820e-02   4.003922e+00   3.921666e-03   3.998012e+00  -1.987695e-03   3.999121e+00  -8.787049e-04   3.999754e+00  -2.459830e-04
2.8	   4.018047e+00   1.804698e-02   4.005935e+00   5.934995e-03   3.998089e+00  -1.910602e-03   3.999028e+00  -9.716485e-04   3.999713e+00  -2.873248e-04
2.9	   4.009515e+00   9.514652e-03   4.008079e+00   8.078841e-03   3.998238e+00  -1.761717e-03   3.998938e+00  -1.062410e-03   3.999667e+00  -3.329781e-04
3	   3.999900e+00  -1.002264e-04   4.010272e+00   1.027211e-02   3.998469e+00  -1.530886e-03   3.998852e+00  -1.147855e-03   3.999617e+00  -3.828468e-04
3.1	   3.989649e+00  -1.035082e-02   4.012397e+00   1.239689e-02   3.998789e+00  -1.211290e-03   3.998775e+00  -1.224549e-03   3.999563e+00  -4.367241e-04
3.2	   3.979523e+00  -2.047663e-02   4.014343e+00   1.434341e-02   3.999205e+00  -7.946241e-04   3.998712e+00  -1.288279e-03   3.999506e+00  -4.941998e-04
3.3	   3.970047e+00  -2.995288e-02   4.015955e+00   1.595530e-02   3.999722e+00  -2.781802e-04   3.998665e+00  -1.334799e-03   3.999445e+00  -5.547132e-04
3.4	   3.961674e+00  -3.832593e-02   4.017063e+00   1.706315e-02   4.000337e+00   3.369594e-04   3.998641e+00  -1.359484e-03   3.999382e+00  -6.175013e-04
3.5	   3.954965e+00  -4.503504e-02   4.017521e+00   1.752141e-02   4.001049e+00   1.048936e-03   3.998643e+00  -1.357199e-03   3.999318e+00  -6.815284e-04
3.6	   3.950295e+00  -4.970473e-02   4.017169e+00   1.716933e-02   4.001849e+00   1.848878e-03   3.998678e+00  -1.322466e-03   3.999254e+00  -7.455372e-04
3.7	   3.948045e+00  -5.195464e-02   4.015871e+00   1.587074e-02   4.002724e+00   2.724057e-03   3.998750e+00  -1.250009e-03   3.999192e+00  -8.079871e-04
3.8	   3.948485e+00  -5.151495e-02   4.013539e+00   1.353868e-02   4.003656e+00   3.656011e-03   3.998865e+00  -1.134830e-03   3.999133e+00  -8.670590e-04
3.9	   3.951628e+00  -4.837196e-02   4.010115e+00   1.011509e-02   4.004618e+00   4.618272e-03   3.999027e+00  -9.727440e-04   3.999079e+00  -9.206734e-04
4	   3.957635e+00  -4.236450e-02   4.005652e+00   5.652234e-03   4.005582e+00   5.582317e-03   3.999240e+00  -7.597038e-04   3.999034e+00  -9.664623e-04
4.1	   3.966356e+00  -3.364394e-02   4.000255e+00   2.553960e-04   4.006510e+00   6.510072e-03   3.999507e+00  -4.929606e-04   3.998998e+00  -1.001882e-03
4.2	   3.977556e+00  -2.244446e-02   3.994125e+00  -5.875226e-03   4.007360e+00   7.359630e-03   3.999829e+00  -1.709369e-04   3.998976e+00  -1.024131e-03
4.3	   3.990811e+00  -9.189045e-03   3.987556e+00  -1.244444e-02   4.008085e+00   8.085257e-03   4.000206e+00   2.063808e-04   3.998970e+00  -1.030250e-03
4.4	   4.005526e+00   5.525618e-03   3.980908e+00  -1.909173e-02   4.008639e+00   8.639051e-03   4.000637e+00   6.371115e-04   3.998983e+00  -1.017083e-03
4.5	   4.021025e+00   2.102506e-02   3.974599e+00  -2.540113e-02   4.008973e+00   8.973124e-03   4.001117e+00   1.117370e-03   3.999019e+00  -9.813101e-04
4.6	   4.036351e+00   3.635107e-02   3.969054e+00  -3.094577e-02   4.009039e+00   9.038876e-03   4.001641e+00   1.640612e-03   3.999080e+00  -9.198813e-04
4.7	   4.050817e+00   5.081745e-02   3.964760e+00  -3.524043e-02   4.008793e+00   8.792763e-03   4.002198e+00   2.198299e-03   3.999170e+00  -8.298543e-04
4.8	   4.063344e+00   6.334394e-02   3.962083e+00  -3.791672e-02   4.008196e+00   8.196313e-03   4.002779e+00   2.778714e-03   3.999291e+00  -7.086486e-04
4.9	   4.072882e+00   7.288177e-02   3.961359e+00  -3.864096e-02   4.007222e+00   7.222149e-03   4.003368e+00   3.367979e-03   3.999446e+00  -5.540836e-04
5	   4.078514e+00   7.851392e-02   3.962855e+00  -3.714470e-02   4.005857e+00   5.856672e-03   4.003949e+00   3.949372e-03   3.999635e+00  -3.645476e-04
5.1	   4.079496e+00   7.949593e-02   3.966706e+00  -3.329446e-02   4.004101e+00   4.101134e-03   4.004503e+00   4.502701e-03   3.999861e+00  -1.391593e-04
5.2	   4.075670e+00   7.567044e-02   3.972944e+00  -2.705586e-02   4.001981e+00   1.980693e-03   4.005007e+00   5.006683e-03   4.000122e+00   1.221414e-04
5.3	   4.067012e+00   6.701249e-02   3.981408e+00  -1.859201e-02   3.999537e+00  -4.632923e-04   4.005438e+00   5.438243e-03   4.000418e+00   4.183303e-04
5.4	   4.053944e+00   5.394425e-02   3.991791e+00  -8.209384e-03   3.996835e+00  -3.165274e-03   4.005774e+00   5.773983e-03   4.000747e+00   7.472289e-04
5.5	   4.037522e+00   3.752231e-02   4.003630e+00   3.629590e-03   3.993963e+00  -6.036797e-03   4.005990e+00   5.990285e-03   4.001105e+00   1.105368e-03
5.6	   4.019062e+00   1.906185e-02   4.016311e+00   1.631086e-02   3.991035e+00  -8.965404e-03   4.006064e+00   6.064465e-03   4.001488e+00   1.487894e-03
5.7	   3.999597e+00  -4.034632e-04   4.029089e+00   2.908943e-02   3.988184e+00  -1.181637e-02   4.005975e+00   5.975491e-03   4.001888e+00   1.888490e-03
5.8	   3.979958e+00  -2.004206e-02   4.041127e+00   4.112696e-02   3.985551e+00  -1.444908e-02   4.005705e+00   5.704583e-03   4.002299e+00   2.299345e-03
5.9	   3.961314e+00  -3.868600e-02   4.051552e+00   5.155188e-02   3.983293e+00  -1.670714e-02   4.005239e+00   5.238732e-03   4.002712e+00   2.711551e-03
6	   3.944730e+00  -5.526978e-02   4.059572e+00   5.957208e-02   3.981564e+00  -1.843578e-02   4.004570e+00   4.569867e-03   4.003114e+00   3.114383e-03
6.1	   3.931320e+00  -6.868013e-02   4.064544e+00   6.454449e-02   3.980522e+00  -1.947843e-02   4.003697e+00   3.697288e-03   4.003495e+00   3.495495e-03
6.2	   3.921622e+00  -7.837806e-02   4.065997e+00   6.599742e-02   3.980302e+00  -1.969774e-02   4.002628e+00   2.627801e-03   4.003842e+00   3.841729e-03
6.3	   3.915753e+00  -8.424683e-02   4.063667e+00   6.366711e-02   3.981030e+00  -1.897009e-02   4.001377e+00   1.376808e-03   4.004139e+00   4.139468e-03
6.4	   3.913987e+00  -8.601326e-02   4.057611e+00   5.761098e-02   3.982795e+00  -1.720470e-02   3.999970e+00  -3.040049e-05   4.004375e+00   4.374951e-03
6.5	   3.916593e+00  -8.340741e-02   4.048158e+00   4.815830e-02   3.985648e+00  -1.435179e-02   3.998441e+00  -1.558586e-03   4.004534e+00   4.534402e-03
6.6	   3.923442e+00  -7.655753e-02   4.035771e+00   3.577084e-02   3.989589e+00  -1.041140e-02   3.996837e+00  -3.163416e-03   4.004604e+00   4.604370e-03
6.7	   3.934557e+00  -6.544343e-02   4.021138e+00   2.113795e-02   3.994560e+00  -5.440253e-03   3.995209e+00  -4.790845e-03   4.004573e+00   4.573368e-03
6.8	   3.949531e+00  -5.046897e-02   4.005037e+00   5.036728e-03   4.000443e+00   4.426738e-04   3.993621e+00  -6.378819e-03   4.004430e+00   4.430001e-03
6.9	   3.967553e+00  -3.244706e-02   3.988333e+00  -1.166689e-02   4.007047e+00   7.047281e-03   3.992142e+00  -7.857543e-03   4.004167e+00   4.166632e-03
7	   3.987532e+00  -1.246849e-02   3.971914e+00  -2.808631e-02   4.014125e+00   1.412515e-02   3.990848e+00  -9.152371e-03   4.003778e+00   3.778353e-03
7.1	   4.008295e+00   8.295322e-03   3.956650e+00  -4.334988e-02   4.021350e+00   2.134951e-02   3.989808e+00  -1.019233e-02   4.003264e+00   3.263877e-03
7.2	   4.028872e+00   2.887182e-02   3.943347e+00  -5.665322e-02   4.028331e+00   2.833089e-02   3.989096e+00  -1.090434e-02   4.002626e+00   2.626120e-03
7.3	   4.048177e+00   4.817691e-02   3.932715e+00  -6.728538e-02   4.034645e+00   3.464513e-02   3.988781e+00  -1.121931e-02   4.001873e+00   1.872689e-03
7.4	   4.064867e+00   6.486656e-02   3.925315e+00  -7.468475e-02   4.039846e+00   3.984570e-02   3.988922e+00  -1.107793e-02   4.001016e+00   1.016152e-03
7.5	   4.078464e+00   7.846411e-02   3.921597e+00  -7.840285e-02   4.043483e+00   4.348334e-02   3.989576e+00  -1.042432e-02   4.000074e+00   7.439095e-05
7.6	   4.087940e+00   8.793976e-02   3.921778e+00  -7.822234e-02   4.045154e+00   4.515430e-02   3.990774e+00  -9.225665e-03   3.999070e+00  -9.295052e-04
7.7	   4.092366e+00   9.236582e-02   3.926043e+00  -7.395721e-02   4.044546e+00   4.454628e-02   3.992533e+00  -7.467111e-03   3.998033e+00  -1.967324e-03
7.8	   4.091458e+00   9.145847e-02   3.934279e+00  -6.572127e-02   4.041426e+00   4.142555e-02   3.994844e+00  -5.156481e-03   3.996994e+00  -3.006223e-03
7.9	   4.085198e+00   8.519776e-02   3.946204e+00  -5.379617e-02   4.035757e+00   3.575748e-02   3.997673e+00  -2.327045e-03   3.995991e+00  -4.009286e-03
8	   4.073880e+00   7.388024e-02   3.961395e+00  -3.860501e-02   4.027683e+00   2.768254e-02   4.000960e+00   9.602047e-04   3.995064e+00  -4.936184e-03
8.1	   4.058321e+00   5.832072e-02   3.979229e+00  -2.077057e-02   4.017507e+00   1.750662e-02   4.004615e+00   4.614517e-03   3.994256e+00  -5.744496e-03
8.2	   4.039821e+00   3.982099e-02   3.998900e+00  -1.100016e-03   4.005708e+00   5.708411e-03   4.008516e+00   8.515827e-03   3.993608e+00  -6.392189e-03
8.3	   4.019746e+00   1.974650e-02   4.019424e+00   1.942397e-02   3.992915e+00  -7.084937e-03   4.012524e+00   1.252397e-02   3.993162e+00  -6.837708e-03
8.4	   3.999263e+00  -7.365643e-04   4.039666e+00   3.966598e-02   3.979833e+00  -2.016654e-02   4.016462e+00   1.646177e-02   3.992957e+00  -7.042517e-03
8.5	   3.979223e+00  -2.077743e-02   4.058349e+00   5.834870e-02   3.967200e+00  -3.280038e-02   4.020135e+00   2.013470e-02   3.993026e+00  -6.974029e-03
8.6	   3.960516e+00  -3.948443e-02   4.074195e+00   7.419519e-02   3.955755e+00  -4.424508e-02   4.023336e+00   2.333647e-02   3.993399e+00  -6.600569e-03
8.7	   3.943899e+00  -5.610091e-02   4.085935e+00   8.593507e-02   3.946175e+00  -5.382548e-02   4.025862e+00   2.586186e-02   3.994097e+00  -5.903280e-03
8.8	   3.930415e+00  -6.958505e-02   4.092553e+00   9.255322e-02   3.939068e+00  -6.093208e-02   4.027513e+00   2.751323e-02   3.995127e+00  -4.872951e-03
8.9	   3.920755e+00  -7.924483e-02   4.093465e+00   9.346453e-02   3.934901e+00  -6.509907e-02   4.028114e+00   2.811362e-02   3.996488e+00  -3.512251e-03
9	   3.915102e+00  -8.489784e-02   4.088505e+00   8.850499e-02   3.934013e+00  -6.598670e-02   4.027519e+00   2.751899e-02   3.998163e+00  -1.837198e-03
9.1	   3.913675e+00  -8.632536e-02   4.078168e+00   7.816772e-02   3.936627e+00  -6.337273e-02   4.025621e+00   2.562110e-02   4.000122e+00   1.215859e-04
9.2	   3.916683e+00  -8.331656e-02   4.063368e+00   6.336793e-02   3.942774e+00  -5.722638e-02   4.022387e+00   2.238725e-02   4.002318e+00   2.318275e-03
9.3	   3.923673e+00  -7.632694e-02   4.045147e+00   4.514706e-02   3.952313e+00  -4.768712e-02   4.017850e+00   1.785005e-02   4.004692e+00   4.691610e-03
9.4	   3.934480e+00  -6.552004e-02   4.024764e+00   2.476443e-02   3.964920e+00  -3.508047e-02   4.012120e+00   1.211971e-02   4.007166e+00   7.165755e-03
9.5	   3.948819e+00  -5.118145e-02   4.003481e+00   3.480553e-03   3.980110e+00  -1.989045e-02   4.005387e+00   5.386547e-03   4.009655e+00   9.654755e-03
9.6	   3.966130e+00  -3.386994e-02   3.982500e+00  -1.749995e-02   3.997167e+00  -2.832807e-03   3.997896e+00  -2.103857e-03   4.012056e+00   1.205613e-02
9.7	   3.985583e+00  -1.441675e-02   3.962926e+00  -3.707357e-02   4.015220e+00   1.521961e-02   3.989960e+00  -1.004048e-02   4.014259e+00   1.425936e-02
9.8	   4.006119e+00   6.118931e-03   3.945697e+00  -5.430340e-02   4.033240e+00   3.324038e-02   3.981955e+00  -1.804479e-02   4.016151e+00   1.615115e-02
9.9	   4.026609e+00   2.660876e-02   3.931597e+00  -6.840308e-02   4.050107e+00   5.010736e-02   3.974266e+00  -2.573403e-02   4.017621e+00   1.762058e-02
10	   4.046192e+00   4.619224e-02   3.921233e+00  -7.876652e-02   4.064681e+00   6.468086e-02   3.967302e+00  -3.269849e-02   4.018562e+00   1.856204e-02
10.1	   4.063576e+00   6.357612e-02   3.914937e+00  -8.506311e-02   4.075895e+00   7.589513e-02   3.961459e+00  -3.854082e-02   4.018881e+00   1.888125e-02
10.2	   4.077415e+00   7.741465e-02   3.912954e+00  -8.704575e-02   4.082916e+00   8.291601e-02   3.957102e+00  -4.289793e-02   4.018500e+00   1.850002e-02
10.3	   4.086916e+00   8.691644e-02   3.915306e+00  -8.469422e-02   4.085160e+00   8.515958e-02   3.954555e+00  -4.544523e-02   4.017360e+00   1.736039e-02
10.4	   4.091955e+00   9.195455e-02   3.921907e+00  -7.809291e-02   4.082384e+00   8.238388e-02   3.954068e+00  -4.593197e-02   4.015441e+00   1.544069e-02
10.5	   4.091864e+00   9.186436e-02   3.932455e+00  -6.754511e-02   4.074740e+00   7.474022e-02   3.955843e+00  -4.415662e-02   4.012752e+00   1.275246e-02
10.6	   4.086077e+00   8.607735e-02   3.946500e+00  -5.350029e-02   4.062749e+00   6.274896e-02   3.959968e+00  -4.003231e-02   4.009346e+00   9.345644e-03
10.7	   4.075195e+00   7.519503e-02   3.963499e+00  -3.650108e-02   4.047177e+00   4.717655e-02   3.966420e+00  -3.358024e-02   4.005304e+00   5.304151e-03
10.8	   4.060049e+00   6.004933e-02   3.982684e+00  -1.731558e-02   4.029010e+00   2.901036e-02   3.975071e+00  -2.492905e-02   4.000749e+00   7.489139e-04
10.9	   4.041788e+00   4.178777e-02   4.003141e+00   3.141216e-03   4.009337e+00   9.337183e-03   3.985659e+00  -1.434061e-02   3.995837e+00  -4.162945e-03
11	   4.021786e+00   2.178614e-02   4.023816e+00   2.381578e-02   3.989260e+00  -1.073954e-02   3.997810e+00  -2.189790e-03   3.990757e+00  -9.242879e-03
11.1	   4.001247e+00   1.246538e-03   4.043530e+00   4.353027e-02   3.969850e+00  -3.014978e-02   4.010993e+00   1.099337e-02   3.985729e+00  -1.427067e-02
11.2	   3.981099e+00  -1.890105e-02   4.061106e+00   6.110571e-02   3.952104e+00  -4.789626e-02   4.024585e+00   2.458534e-02   3.980972e+00  -1.902833e-02
11.3	   3.962261e+00  -3.773877e-02   4.075491e+00   7.549144e-02   3.936891e+00  -6.310883e-02   4.037829e+00   3.782878e-02   3.976717e+00  -2.328263e-02
11.4	   3.945424e+00  -5.457572e-02   4.085785e+00   8.578520e-02   3.924927e+00  -7.507322e-02   4.049909e+00   4.990921e-02   3.973193e+00  -2.680731e-02
11.5	   3.931617e+00  -6.838261e-02   4.091336e+00   9.133587e-02   3.916799e+00  -8.320107e-02   4.059991e+00   5.999140e-02   3.970609e+00  -2.939106e-02
11.6	   3.921540e+00  -7.846028e-02   4.091775e+00   9.177465e-02   3.912912e+00  -8.708783e-02   4.067283e+00   6.728252e-02   3.969155e+00  -3.084518e-02
11.7	   3.915456e+00  -8.454362e-02   4.086949e+00   8.694903e-02   3.913487e+00  -8.651299e-02   4.071078e+00   7.107755e-02   3.968983e+00  -3.101737e-02
11.8	   3.913601e+00  -8.639900e-02   4.077156e+00   7.715610e-02   3.918615e+00  -8.138507e-02   4.070912e+00   7.091244e-02   3.970217e+00  -2.978309e-02
11.9	   3.916275e+00  -8.372467e-02   4.063047e+00   6.304707e-02   3.928154e+00  -7.184603e-02   4.066526e+00   6.652595e-02   3.972918e+00  -2.708168e-02
12	   3.922997e+00  -7.700333e-02   4.045448e+00   4.544771e-02   3.941742e+00  -5.825818e-02   4.058041e+00   5.804123e-02   3.977085e+00  -2.291509e-02
12.1	   3.933472e+00  -6.652801e-02   4.025535e+00   2.553501e-02   3.958850e+00  -4.114957e-02   4.045890e+00   4.589020e-02   3.982636e+00  -1.736356e-02
12.2	   3.947450e+00  -5.255042e-02   4.004624e+00   4.623956e-03   3.978710e+00  -2.129006e-02   4.030753e+00   3.075320e-02   3.989434e+00  -1.056560e-02
12.3	   3.964443e+00  -3.555698e-02   3.983969e+00  -1.603130e-02   4.000330e+00   3.300541e-04   4.013567e+00   1.356675e-02   3.997281e+00  -2.719362e-03
12.4	   3.983632e+00  -1.636781e-02   3.964672e+00  -3.532753e-02   4.022518e+00   2.251792e-02   3.995375e+00  -4.625222e-03   4.005894e+00   5.894039e-03
12.5	   4.004142e+00   4.141851e-03   3.947647e+00  -5.235250e-02   4.043921e+00   4.392140e-02   3.977234e+00  -2.276582e-02   4.014921e+00   1.492066e-02
12.6	   4.024765e+00   2.476462e-02   3.933634e+00  -6.636613e-02   4.063129e+00   6.312907e-02   3.960176e+00  -3.982435e-02   4.023942e+00   2.394211e-02
12.7	   4.044379e+00   4.437875e-02   3.923173e+00  -7.682677e-02   4.078801e+00   7.880055e-02   3.945130e+00  -5.487000e-02   4.032491e+00   3.249107e-02
12.8	   4.061822e+00   6.182243e-02   3.916588e+00  -8.341168e-02   4.089824e+00   8.982379e-02   3.932896e+00  -6.710432e-02   4.040088e+00   4.008759e-02
12.9	   4.076082e+00   7.608229e-02   3.914102e+00  -8.589848e-02   4.095372e+00   9.537157e-02   3.924125e+00  -7.587461e-02   4.046225e+00   4.622467e-02
13	   4.086112e+00   8.611209e-02   3.915776e+00  -8.422367e-02   4.095130e+00   9.513037e-02   3.919282e+00  -8.071752e-02   4.050449e+00   5.044875e-02
13.1	   4.091392e+00   9.139221e-02   3.921600e+00  -7.840026e-02   4.089146e+00   8.914568e-02   3.918634e+00  -8.136608e-02   4.052375e+00   5.237451e-02
13.2	   4.091868e+00   9.186752e-02   3.931367e+00  -6.863323e-02   4.077999e+00   7.799861e-02   3.922339e+00  -7.766124e-02   4.051733e+00   5.173303e-02
13.3	   4.086896e+00   8.689643e-02   3.944703e+00  -5.529659e-02   4.062605e+00   6.260532e-02   3.930303e+00  -6.969739e-02   4.048349e+00   4.834866e-02
13.4	   4.076544e+00   7.654445e-02   3.961146e+00  -3.885386e-02   4.044037e+00   4.403697e-02   3.942227e+00  -5.777318e-02   4.042256e+00   4.225571e-02
13.5	   4.061807e+00   6.180732e-02   3.980000e+00  -1.999962e-02   4.023548e+00   2.354751e-02   3.957651e+00  -4.234904e-02   4.033657e+00   3.365667e-02
13.6	   4.043815e+00   4.381521e-02   4.000405e+00   4.051683e-04   4.002363e+00   2.362871e-03   3.975878e+00  -2.412168e-02   4.022927e+00   2.292681e-02
13.7	   4.023821e+00   2.382114e-02   4.021303e+00   2.130298e-02   3.981640e+00  -1.836045e-02   3.996035e+00  -3.964872e-03   4.010554e+00   1.055363e-02
13.8	   4.003160e+00   3.159533e-03   4.041477e+00   4.147695e-02   3.962417e+00  -3.758314e-02   4.017039e+00   1.703904e-02   3.997186e+00  -2.814180e-03
13.9	   3.982935e+00  -1.706540e-02   4.059640e+00   5.964017e-02   3.945563e+00  -5.443679e-02   4.037687e+00   3.768713e-02   3.983505e+00  -1.649533e-02
14	   3.964031e+00  -3.596852e-02   4.074624e+00   7.462417e-02   3.931802e+00  -6.819812e-02   4.056691e+00   5.669065e-02   3.970239e+00  -2.976051e-02
14.1	   3.947035e+00  -5.296496e-02   4.085409e+00   8.540885e-02   3.921684e+00  -7.831614e-02   4.072823e+00   7.282337e-02   3.958120e+00  -4.188042e-02
14.2	   3.932925e+00  -6.707460e-02   4.091324e+00   9.132391e-02   3.915553e+00  -8.444655e-02   4.084940e+00   8.493954e-02   3.947792e+00  -5.220801e-02
14.3	   3.922385e+00  -7.761508e-02   4.092075e+00   9.207538e-02   3.913621e+00  -8.637943e-02   4.092133e+00   9.213286e-02   3.939846e+00  -6.015410e-02
14.4	   3.915826e+00  -8.417412e-02   4.087593e+00   8.759266e-02   3.915915e+00  -8.408454e-02   4.093860e+00   9.386021e-02   3.934743e+00  -6.525731e-02
14.5	   3.913582e+00  -8.641844e-02   4.078175e+00   7.817460e-02   3.922337e+00  -7.766345e-02   4.089932e+00   8.993223e-02   3.932845e+00  -6.715464e-02
14.6	   3.915911e+00  -8.408921e-02   4.064410e+00   6.441002e-02   3.932619e+00  -6.738100e-02   4.080658e+00   8.065779e-02   3.934357e+00  -6.564322e-02
14.7	   3.922432e+00  -7.756780e-02   4.047072e+00   4.707153e-02   3.946329e+00  -5.367141e-02   4.066734e+00   6.673434e-02   3.939401e+00  -6.059891e-02
14.8	   3.932727e+00  -6.727298e-02   4.027313e+00   2.731317e-02   3.962928e+00  -3.707193e-02   4.049103e+00   4.910328e-02   3.947880e+00  -5.211953e-02
14.9	   3.946418e+00  -5.358158e-02   4.006473e+00   6.473201e-03   3.981726e+00  -1.827361e-02   4.028938e+00   2.893754e-02   3.959560e+00  -4.043996e-02
15	   3.963132e+00  -3.686790e-02   3.985852e+00  -1.414837e-02   4.001877e+00   1.877290e-03   4.007473e+00   7.473004e-03   3.974025e+00  -2.597514e-02
15.1	   3.982069e+00  -1.793095e-02   3.966547e+00  -3.345332e-02   4.022402e+00   2.240175e-02   3.985937e+00  -1.406257e-02   3.990679e+00  -9.321203e-03
15.2	   4.002455e+00   2.455024e-03   3.949432e+00  -5.056790e-02   4.042206e+00   4.220572e-02   3.965479e+00  -3.452108e-02   4.008749e+00   8.749006e-03
15.3	   4.023170e+00   2.317018e-02   3.935209e+00  -6.479063e-02   4.060129e+00   6.012939e-02   3.947106e+00  -5.289407e-02   4.027295e+00   2.729514e-02
15.4	   4.042927e+00   4.292696e-02   3.924392e+00  -7.560769e-02   4.075039e+00   7.503926e-02   3.931707e+00  -6.829333e-02   4.045214e+00   4.521429e-02
15.5	   4.060418e+00   6.041780e-02   3.917360e+00  -8.263951e-02   4.085891e+00   8.589107e-02   3.919986e+00  -8.001415e-02   4.061331e+00   6.133075e-02
15.6	   4.074739e+00   7.473872e-02   3.914371e+00  -8.562895e-02   4.091846e+00   9.184609e-02   3.912430e+00  -8.757006e-02   4.074494e+00   7.449429e-02
15.7	   4.085145e+00   8.514470e-02   3.915551e+00  -8.444865e-02   4.092472e+00   9.247221e-02   3.909407e+00  -9.059337e-02   4.083649e+00   8.364889e-02
15.8	   4.090850e+00   9.085009e-02   3.920943e+00  -7.905722e-02   4.087665e+00   8.766508e-02   3.911042e+00  -8.895794e-02   4.087948e+00   8.794787e-02
15.9	   4.091630e+00   9.162953e-02   3.930392e+00  -6.960787e-02   4.077834e+00   7.783350e-02   3.917338e+00  -8.266247e-02   4.086910e+00   8.690969e-02
16	   4.087238e+00   8.723823e-02   3.943512e+00  -5.648781e-02   4.063734e+00   6.373351e-02   3.928043e+00  -7.195651e-02   4.080417e+00   8.041681e-02
16.1	   4.077724e+00   7.772415e-02   3.959817e+00  -4.018324e-02   4.046299e+00   4.629879e-02   3.942729e+00  -5.727092e-02   4.068888e+00   6.888841e-02
16.2	   4.063487e+00   6.348706e-02   3.978559e+00  -2.144139e-02   4.026654e+00   2.665433e-02   3.960778e+00  -3.922241e-02   4.053096e+00   5.309562e-02
16.3	   4.045742e+00   4.574178e-02   3.998820e+00  -1.180382e-03   4.005950e+00   5.950400e-03   3.981331e+00  -1.866930e-02   4.034141e+00   3.414083e-02
16.4	   4.025896e+00   2.589621e-02   4.019560e+00   1.955957e-02   3.985325e+00  -1.467524e-02   4.003342e+00   3.341655e-03   4.013288e+00   1.328771e-02
16.5	   4.005197e+00   5.196990e-03   4.039667e+00   3.966675e-02   3.965848e+00  -3.415186e-02   4.025573e+00   2.557282e-02   3.991849e+00  -8.150864e-03
16.6	   3.984797e+00  -1.520345e-02   4.057952e+00   5.795168e-02   3.948461e+00  -5.153942e-02   4.046661e+00   4.666068e-02   3.971078e+00  -2.892200e-02
16.7	   3.965711e+00  -3.428939e-02   4.073263e+00   7.326289e-02   3.933978e+00  -6.602238e-02   4.065247e+00   6.524722e-02   3.952101e+00  -4.789864e-02
16.8	   3.948537e+00  -5.146306e-02   4.084534e+00   8.453374e-02   3.923040e+00  -7.696048e-02   4.080072e+00   8.007211e-02   3.935884e+00  -6.411629e-02
16.9	   3.934213e+00  -6.578704e-02   4.091047e+00   9.104683e-02   3.916084e+00  -8.391554e-02   4.090151e+00   9.015061e-02   3.923198e+00  -7.680195e-02
17	   3.923329e+00  -7.667147e-02   4.092389e+00   9.238917e-02   3.913392e+00  -8.660833e-02   4.094793e+00   9.479290e-02   3.914631e+00  -8.536858e-02
17.1	   3.916364e+00  -8.363555e-02   4.088368e+00   8.836830e-02   3.915027e+00  -8.497285e-02   4.093817e+00   9.381682e-02   3.910567e+00  -8.943349e-02
17.2	   3.913678e+00  -8.632230e-02   4.079226e+00   7.922582e-02   3.920949e+00  -7.905093e-02   4.087384e+00   8.738434e-02   3.911177e+00  -8.882295e-02
17.3	   3.915549e+00  -8.445114e-02   4.065672e+00   6.567222e-02   3.930898e+00  -6.910196e-02   4.076156e+00   7.615638e-02   3.916495e+00  -8.350490e-02
17.4	   3.921735e+00  -7.826540e-02   4.048621e+00   4.862060e-02   3.944428e+00  -5.557229e-02   4.061034e+00   6.103417e-02   3.926276e+00  -7.372407e-02
17.5	   3.931840e+00  -6.816029e-02   4.029169e+00   2.916884e-02   3.960978e+00  -3.902152e-02   4.043036e+00   4.303635e-02   3.940142e+00  -5.985827e-02
17.6	   3.945372e+00  -5.462791e-02   4.008480e+00   8.479615e-03   3.979823e+00  -2.017675e-02   4.023287e+00   2.328664e-02   3.957488e+00  -4.251214e-02
17.7	   3.961954e+00  -3.804571e-02   3.987778e+00  -1.222226e-02   4.000101e+00   1.014277e-04   4.002881e+00   2.881167e-03   3.977519e+00  -2.248097e-02
17.8	   3.980710e+00  -1.929050e-02   3.968202e+00  -3.179788e-02   4.020804e+00   2.080385e-02   3.982855e+00  -1.714522e-02   3.999243e+00  -7.568268e-04
17.9	   4.000860e+00   8.600620e-04   3.950762e+00  -4.923849e-02   4.040817e+00   4.081707e-02   3.964144e+00  -3.585648e-02   4.021492e+00   2.149169e-02
18	   4.021528e+00   2.152788e-02   3.936257e+00  -6.374323e-02   4.058979e+00   5.897925e-02   3.947561e+00  -5.243916e-02   4.042986e+00   4.298636e-02
18.1	   4.041486e+00   4.148575e-02   3.925224e+00  -7.477614e-02   4.074172e+00   7.417167e-02   3.933817e+00  -6.618324e-02   4.062388e+00   6.238796e-02
18.2	   4.059184e+00   5.918421e-02   3.918023e+00  -8.197653e-02   4.085361e+00   8.536117e-02   3.923457e+00  -7.654331e-02   4.078435e+00   7.843478e-02
18.3	   4.073547e+00   7.354701e-02   3.914849e+00  -8.515148e-02   4.091733e+00   9.173323e-02   3.916900e+00  -8.310028e-02   4.090050e+00   9.004990e-02
18.4	   4.084137e+00   8.413666e-02   3.915788e+00  -8.421215e-02   4.092833e+00   9.283279e-02   3.914398e+00  -8.560202e-02   4.096356e+00   9.635583e-02
18.5	   4.090262e+00   9.026176e-02   3.920833e+00  -7.916690e-02   4.088496e+00   8.849570e-02   3.916055e+00  -8.394509e-02   4.096953e+00   9.695256e-02
18.6	   4.091488e+00   9.148805e-02   3.929855e+00  -7.014513e-02   4.079033e+00   7.903295e-02   3.921873e+00  -7.812721e-02   4.091744e+00   9.174391e-02
18.7	   4.087478e+00   8.747769e-02   3.942529e+00  -5.747072e-02   4.065127e+00   6.512657e-02   3.931638e+00  -6.836190e-02   4.081172e+00   8.117218e-02
18.8	   4.078608e+00   7.860790e-02   3.958460e+00  -4.153965e-02   4.047715e+00   4.771486e-02   3.944984e+00  -5.501629e-02   4.066034e+00   6.603445e-02
18.9	   4.065090e+00   6.508952e-02   3.976954e+00  -2.304559e-02   4.028002e+00   2.800174e-02   3.961408e+00  -3.859229e-02   4.047367e+00   4.736651e-02
19	   4.047712e+00   4.771242e-02   3.997116e+00  -2.883610e-03   4.007241e+00   7.240820e-03   3.980204e+00  -1.979590e-02   4.026410e+00   2.641000e-02
19.1	   4.027946e+00   2.794643e-02   4.017856e+00   1.785630e-02   3.986635e+00  -1.336515e-02   4.000503e+00   5.030925e-04   4.004441e+00   4.441429e-03
19.2	   4.007228e+00   7.228069e-03   4.037989e+00   3.798919e-02   3.967253e+00  -3.274707e-02   4.021280e+00   2.127990e-02   3.982704e+00  -1.729624e-02
19.3	   3.986753e+00  -1.324663e-02   4.056350e+00   5.634989e-02   3.949990e+00  -5.000980e-02   4.041387e+00   4.138661e-02   3.962338e+00  -3.766183e-02