           0.1	   3.999907e+00  -1.000009e+01   3.999986e+00  -1.000001e+01   3.999998e+00  -1.000000e+01   4.000000e+00  -1.000000e+01   4.000000e+00  -1.000000e+01
0.2	   3.999440e+00  -1.000056e+01   3.999919e+00  -1.000008e+01   3.999989e+00  -1.000001e+01   3.999999e+00  -1.000000e+01   4.000000e+00  -1.000000e+01
0.3	   3.998381e+00  -1.000162e+01   3.999769e+00  -1.000023e+01   3.999969e+00  -1.000003e+01   3.999996e+00  -1.000000e+01   3.999999e+00  -1.000000e+01
0.4	   3.996600e+00  -1.000340e+01   3.999516e+00  -1.000048e+01   3.999934e+00  -1.000007e+01   3.999991e+00  -1.000001e+01   3.999999e+00  -1.000000e+01
0.5	   3.994070e+00  -1.000593e+01   3.999152e+00  -1.000085e+01   3.999881e+00  -1.000012e+01   3.999983e+00  -1.000002e+01   3.999998e+00  -1.000000e+01
0.6	   3.990888e+00  -1.000911e+01   3.998677e+00  -1.000132e+01   3.999809e+00  -1.000019e+01   3.999972e+00  -1.000003e+01   3.999996e+00  -1.000000e+01
0.7	   3.987238e+00  -1.001276e+01   3.998100e+00  -1.000190e+01   3.999715e+00  -1.000028e+01   3.999957e+00  -1.000004e+01   3.999994e+00  -1.000001e+01
0.8	   3.983323e+00  -1.001668e+01   3.997414e+00  -1.000259e+01   3.999596e+00  -1.000040e+01   3.999937e+00  -1.000006e+01   3.999990e+00  -1.000001e+01
0.9	   3.979251e+00  -1.002075e+01   3.996586e+00  -1.000341e+01   3.999442e+00  -1.000056e+01   3.999909e+00  -1.000009e+01   3.999985e+00  -1.000001e+01
1	   3.975473e+00  -1.002453e+01   3.995618e+00  -1.000438e+01   3.999249e+00  -1.000075e+01   3.999873e+00  -1.000013e+01   3.999979e+00  -1.000002e+01
1.1	   3.972871e+00  -1.002713e+01   3.994578e+00  -1.000542e+01   3.999020e+00  -1.000098e+01   3.999827e+00  -1.000017e+01   3.999970e+00  -1.000003e+01
1.2	   3.972062e+00  -1.002794e+01   3.993491e+00  -1.000651e+01   3.998752e+00  -1.000125e+01   3.999770e+00  -1.000023e+01   3.999959e+00  -1.000004e+01
1.3	   3.973761e+00  -1.002624e+01   3.992411e+00  -1.000759e+01   3.998445e+00  -1.000155e+01   3.999700e+00  -1.000030e+01   3.999945e+00  -1.000006e+01
1.4	   3.978662e+00  -1.002134e+01   3.991419e+00  -1.000858e+01   3.998104e+00  -1.000190e+01   3.999615e+00  -1.000038e+01   3.999927e+00  -1.000007e+01
1.5	   3.987102e+00  -1.001290e+01   3.990593e+00  -1.000941e+01   3.997733e+00  -1.000227e+01   3.999515e+00  -1.000048e+01   3.999904e+00  -1.000010e+01
1.6	   3.999105e+00  -1.000089e+01   3.990021e+00  -1.000998e+01   3.997339e+00  -1.000266e+01   3.999398e+00  -1.000060e+01   3.999876e+00  -1.000012e+01
1.7	   4.014095e+00  -9.985905e+00   3.989774e+00  -1.001023e+01   3.996928e+00  -1.000307e+01   3.999263e+00  -1.000074e+01   3.999842e+00  -1.000016e+01
1.8	   4.031321e+00  -9.968679e+00   3.989971e+00  -1.001003e+01   3.996516e+00  -1.000348e+01   3.999109e+00  -1.000089e+01   3.999801e+00  -1.000020e+01
1.9	   4.049023e+00  -9.950977e+00   3.990651e+00  -1.000935e+01   3.996109e+00  -1.000389e+01   3.998935e+00  -1.000106e+01   3.999752e+00  -1.000025e+01
2	   4.066601e+00  -9.933399e+00   3.992054e+00  -1.000795e+01   3.995746e+00  -1.000425e+01   3.998746e+00  -1.000125e+01   3.999695e+00  -1.000031e+01
2.1	   4.081303e+00  -9.918697e+00   3.994078e+00  -1.000592e+01   3.995425e+00  -1.000457e+01   3.998538e+00  -1.000146e+01   3.999628e+00  -1.000037e+01
2.2	   4.091612e+00  -9.908388e+00   3.996779e+00  -1.000322e+01   3.995169e+00  -1.000483e+01   3.998314e+00  -1.000169e+01   3.999550e+00  -1.000045e+01
2.3	   4.096143e+00  -9.903857e+00   4.000261e+00  -9.999739e+00   3.995015e+00  -1.000499e+01   3.998080e+00  -1.000192e+01   3.999461e+00  -1.000054e+01
2.4	   4.092787e+00  -9.907213e+00   4.004444e+00  -9.995556e+00   3.994979e+00  -1.000502e+01   3.997838e+00  -1.000216e+01   3.999360e+00  -1.000064e+01
2.5	   4.081166e+00  -9.918834e+00   4.009294e+00  -9.990706e+00   3.995094e+00  -1.000491e+01   3.997595e+00  -1.000241e+01   3.999248e+00  -1.000075e+01
2.6	   4.062508e+00  -9.937492e+00   4.014733e+00  -9.985267e+00   3.995392e+00  -1.000461e+01   3.997358e+00  -1.000264e+01   3.999124e+00  -1.000088e+01
2.7	   4.038185e+00  -9.961815e+00   4.020626e+00  -9.979374e+00   3.995903e+00  -1.000410e+01   3.997137e+00  -1.000286e+01   3.998988e+00  -1.000101e+01
2.8	   4.010649e+00  -9.989351e+00   4.026801e+00  -9.973199e+00   3.996660e+00  -1.000334e+01   3.996942e+00  -1.000306e+01   3.998843e+00  -1.000116e+01
2.9	   3.981750e+00  -1.001825e+01   4.032939e+00  -9.967061e+00   3.997681e+00  -1.000232e+01   3.996786e+00  -1.000321e+01   3.998688e+00  -1.000131e+01
3	   3.953055e+00  -1.004695e+01   4.038651e+00  -9.961349e+00   3.998979e+00  -1.000102e+01   3.996682e+00  -1.000332e+01   3.998527e+00  -1.000147e+01
3.1	   3.926542e+00  -1.007346e+01   4.043549e+00  -9.956451e+00   4.000568e+00  -9.999432e+00   3.996643e+00  -1.000336e+01   3.998363e+00  -1.000164e+01
3.2	   3.903201e+00  -1.009680e+01   4.047083e+00  -9.952917e+00   4.002431e+00  -9.997569e+00   3.996685e+00  -1.000332e+01   3.998198e+00  -1.000180e+01
3.3	   3.884398e+00  -1.011560e+01   4.048726e+00  -9.951274e+00   4.004551e+00  -9.995449e+00   3.996822e+00  -1.000318e+01   3.998037e+00  -1.000196e+01
3.4	   3.871912e+00  -1.012809e+01   4.048100e+00  -9.951900e+00   4.006918e+00  -9.993082e+00   3.997074e+00  -1.000293e+01   3.997886e+00  -1.000211e+01
3.5	   3.865599e+00  -1.013440e+01   4.044576e+00  -9.955424e+00   4.009467e+00  -9.990533e+00   3.997451e+00  -1.000255e+01   3.997751e+00  -1.000225e+01
3.6	   3.866554e+00  -1.013345e+01   4.037880e+00  -9.962120e+00   4.012139e+00  -9.987861e+00   3.997967e+00  -1.000203e+01   3.997638e+00  -1.000236e+01
3.7	   3.875130e+00  -1.012487e+01   4.027879e+00  -9.972121e+00   4.014844e+00  -9.985156e+00   3.998633e+00  -1.000137e+01   3.997555e+00  -1.000244e+01
3.8	   3.890260e+00  -1.010974e+01   4.014764e+00  -9.985236e+00   4.017492e+00  -9.982508e+00   3.999456e+00  -1.000054e+01   3.997511e+00  -1.000249e+01
3.9	   3.912563e+00  -1.008744e+01   3.998974e+00  -1.000103e+01   4.019959e+00  -9.980041e+00   4.000440e+00  -9.999560e+00   3.997515e+00  -1.000249e+01
4	   3.942908e+00  -1.005709e+01   3.981300e+00  -1.001870e+01   4.022120e+00  -9.977880e+00   4.001583e+00  -9.998417e+00   3.997576e+00  -1.000242e+01
4.1	   3.979389e+00  -1.002061e+01   3.962728e+00  -1.003727e+01   4.023824e+00  -9.976176e+00   4.002875e+00  -9.997125e+00   3.997703e+00  -1.000230e+01
4.2	   4.021549e+00  -9.978451e+00   3.944582e+00  -1.005542e+01   4.024940e+00  -9.975060e+00   4.004303e+00  -9.995697e+00   3.997906e+00  -1.000209e+01
4.3	   4.067099e+00  -9.932901e+00   3.928146e+00  -1.007185e+01   4.025328e+00  -9.974672e+00   4.005847e+00  -9.994153e+00   3.998194e+00  -1.000181e+01
4.4	   4.113109e+00  -9.886891e+00   3.914738e+00  -1.008526e+01   4.024854e+00  -9.975146e+00   4.007477e+00  -9.992523e+00   3.998575e+00  -1.000142e+01
4.5	   4.156569e+00  -9.843431e+00   3.905476e+00  -1.009452e+01   4.023407e+00  -9.976593e+00   4.009156e+00  -9.990844e+00   3.999055e+00  -1.000095e+01
4.6	   4.193343e+00  -9.806657e+00   3.901330e+00  -1.009867e+01   4.020905e+00  -9.979095e+00   4.010836e+00  -9.989164e+00   3.999638e+00  -1.000036e+01
4.7	   4.220208e+00  -9.779792e+00   3.903059e+00  -1.009694e+01   4.017315e+00  -9.982685e+00   4.012463e+00  -9.987537e+00   4.000327e+00  -9.999673e+00
4.8	   4.228979e+00  -9.771021e+00   3.911278e+00  -1.008872e+01   4.012656e+00  -9.987344e+00   4.013977e+00  -9.986023e+00   4.001122e+00  -9.998878e+00
4.9	   4.223218e+00  -9.776782e+00   3.926174e+00  -1.007383e+01   4.007000e+00  -9.993000e+00   4.015316e+00  -9.984684e+00   4.002019e+00  -9.997981e+00
5	   4.188810e+00  -9.811190e+00   3.947678e+00  -1.005232e+01   4.000483e+00  -9.999517e+00   4.016412e+00  -9.983588e+00   4.003011e+00  -9.996989e+00
5.1	   4.164657e+00  -9.835343e+00   3.975361e+00  -1.002464e+01   3.993314e+00  -1.000669e+01   4.017196e+00  -9.982804e+00   4.004086e+00  -9.995914e+00
5.2	   4.116105e+00  -9.883895e+00   4.008195e+00  -9.991805e+00   3.985760e+00  -1.001424e+01   4.017600e+00  -9.982400e+00   4.005228e+00  -9.994772e+00
5.3	   4.053861e+00  -9.946139e+00   4.044712e+00  -9.955288e+00   3.978173e+00  -1.002183e+01   4.017565e+00  -9.982435e+00   4.006420e+00  -9.993580e+00
5.4	   3.998514e+00  -1.000149e+01   4.083094e+00  -9.916906e+00   3.970961e+00  -1.002904e+01   4.017038e+00  -9.982962e+00   4.007635e+00  -9.992365e+00
5.5	   3.944434e+00  -1.005557e+01   4.120480e+00  -9.879520e+00   3.964543e+00  -1.003546e+01   4.015982e+00  -9.984018e+00   4.008844e+00  -9.991156e+00
5.6	   3.888529e+00  -1.011147e+01   4.153560e+00  -9.846440e+00   3.959358e+00  -1.004064e+01   4.014375e+00  -9.985625e+00   4.010013e+00  -9.989987e+00
5.7	   3.853557e+00  -1.014644e+01   4.178778e+00  -9.821222e+00   3.955857e+00  -1.004414e+01   4.012216e+00  -9.987784e+00   4.011106e+00  -9.988894e+00
5.8	   3.808675e+00  -1.019132e+01   4.192529e+00  -9.807471e+00   3.954464e+00  -1.004554e+01   4.009529e+00  -9.990471e+00   4.012085e+00  -9.987915e+00
5.9	   3.791054e+00  -1.020895e+01   4.192541e+00  -9.807459e+00   3.955489e+00  -1.004451e+01   4.006361e+00  -9.993639e+00   4.012910e+00  -9.987090e+00
6	   3.773757e+00  -1.022624e+01   4.178858e+00  -9.821142e+00   3.959294e+00  -1.004071e+01   4.002793e+00  -9.997207e+00   4.013541e+00  -9.986459e+00
6.1	   3.774502e+00  -1.022550e+01   4.152598e+00  -9.847402e+00   3.966037e+00  -1.003396e+01   3.998929e+00  -1.000107e+01   4.013940e+00  -9.986060e+00
6.2	   3.780767e+00  -1.021923e+01   4.118382e+00  -9.881618e+00   3.975816e+00  -1.002418e+01   3.994903e+00  -1.000510e+01   4.014073e+00  -9.985927e+00
6.3	   3.797351e+00  -1.020265e+01   4.071119e+00  -9.928881e+00   3.988582e+00  -1.001142e+01   3.990875e+00  -1.000912e+01   4.013908e+00  -9.986092e+00
6.4	   3.834450e+00  -1.016555e+01   4.023993e+00  -9.976007e+00   4.004119e+00  -9.995881e+00   3.987031e+00  -1.001297e+01   4.013421e+00  -9.986579e+00
6.5	   3.861997e+00  -1.013800e+01   3.975545e+00  -1.002446e+01   4.022015e+00  -9.977985e+00   3.983574e+00  -1.001643e+01   4.012599e+00  -9.987401e+00
6.6	   3.916251e+00  -1.008375e+01   3.929569e+00  -1.007043e+01   4.041606e+00  -9.958394e+00   3.980693e+00  -1.001931e+01   4.011439e+00  -9.988561e+00
6.7	   3.989646e+00  -1.001035e+01   3.885273e+00  -1.011473e+01   4.062051e+00  -9.937949e+00   3.978595e+00  -1.002141e+01   4.009948e+00  -9.990052e+00
6.8	   4.045691e+00  -9.954309e+00   3.840640e+00  -1.015936e+01   4.082200e+00  -9.917800e+00   3.977477e+00  -1.002252e+01   4.008151e+00  -9.991849e+00
6.9	   4.107867e+00  -9.892133e+00   3.839049e+00  -1.016095e+01   4.100725e+00  -9.899275e+00   3.977515e+00  -1.002249e+01   4.006085e+00  -9.993915e+00
7	   4.176884e+00  -9.823116e+00   3.792871e+00  -1.020713e+01   4.116050e+00  -9.883950e+00   3.978872e+00  -1.002113e+01   4.003802e+00  -9.996198e+00
7.1	   4.228525e+00  -9.771475e+00   3.793585e+00  -1.020642e+01   4.126527e+00  -9.873473e+00   3.981661e+00  -1.001834e+01   4.001372e+00  -9.998628e+00
7.2	   4.251528e+00  -9.748472e+00   3.793246e+00  -1.020675e+01   4.130518e+00  -9.869482e+00   3.985952e+00  -1.001405e+01   3.998876e+00  -1.000112e+01
7.3	   4.282526e+00  -9.717474e+00   3.814299e+00  -1.018570e+01   4.126749e+00  -9.873251e+00   3.991750e+00  -1.000825e+01   3.996409e+00  -1.000359e+01
7.4	   4.274765e+00  -9.725235e+00   3.828459e+00  -1.017154e+01   4.114475e+00  -9.885525e+00   3.998997e+00  -1.000100e+01   3.994079e+00  -1.000592e+01
7.5	   4.248915e+00  -9.751085e+00   3.857886e+00  -1.014211e+01   4.093798e+00  -9.906202e+00   4.007552e+00  -9.992448e+00   3.991997e+00  -1.000800e+01
7.6	   4.217163e+00  -9.782837e+00   3.911641e+00  -1.008836e+01   4.065699e+00  -9.934301e+00   4.017197e+00  -9.982803e+00   3.990278e+00  -1.000972e+01
7.7	   4.162611e+00  -9.837389e+00   3.952290e+00  -1.004771e+01   4.031968e+00  -9.968032e+00   4.027625e+00  -9.972375e+00   3.989036e+00  -1.001096e+01
7.8	   4.099467e+00  -9.900533e+00   4.001683e+00  -9.998317e+00   3.994880e+00  -1.000512e+01   4.038423e+00  -9.961577e+00   3.988385e+00  -1.001161e+01
7.9	   4.041963e+00  -9.958037e+00   4.069139e+00  -9.930861e+00   3.957055e+00  -1.004295e+01   4.049110e+00  -9.950890e+00   3.988423e+00  -1.001158e+01
8	   3.983419e+00  -1.001658e+01   4.131968e+00  -9.868032e+00   3.920985e+00  -1.007901e+01   4.059127e+00  -9.940873e+00   3.989238e+00  -1.001076e+01
8.1	   3.927387e+00  -1.007261e+01   4.188471e+00  -9.811529e+00   3.888766e+00  -1.011123e+01   4.067825e+00  -9.932175e+00   3.990894e+00  -1.000911e+01
8.2	   3.877981e+00  -1.012202e+01   4.233509e+00  -9.766491e+00   3.862187e+00  -1.013781e+01   4.074552e+00  -9.925448e+00   3.993429e+00  -1.000657e+01
8.3	   3.838595e+00  -1.016141e+01   4.271289e+00  -9.728711e+00   3.842718e+00  -1.015728e+01   4.078707e+00  -9.921293e+00   3.996848e+00  -1.000315e+01
8.4	   3.807404e+00  -1.019260e+01   4.275696e+00  -9.724304e+00   3.831624e+00  -1.016838e+01   4.079704e+00  -9.920296e+00   4.001109e+00  -9.998891e+00
8.5	   3.784929e+00  -1.021507e+01   4.260405e+00  -9.739595e+00   3.829088e+00  -1.017091e+01   4.077034e+00  -9.922966e+00   4.006139e+00  -9.993861e+00
8.6	   3.774147e+00  -1.022585e+01   4.234299e+00  -9.765701e+00   3.834195e+00  -1.016580e+01   4.070420e+00  -9.929580e+00   4.011825e+00  -9.988175e+00
8.7	   3.778560e+00  -1.022144e+01   4.184918e+00  -9.815082e+00   3.853132e+00  -1.014687e+01   4.059817e+00  -9.940183e+00   4.018022e+00  -9.981978e+00
8.8	   3.789232e+00  -1.021077e+01   4.129495e+00  -9.870505e+00   3.877820e+00  -1.012218e+01   4.045453e+00  -9.954547e+00   4.024517e+00  -9.975483e+00
8.9	   3.799129e+00  -1.020087e+01   4.055940e+00  -9.944060e+00   3.912630e+00  -1.008737e+01   4.027858e+00  -9.972142e+00   4.031064e+00  -9.968936e+00
9	   3.845075e+00  -1.015493e+01   3.992088e+00  -1.000791e+01   3.954462e+00  -1.004554e+01   4.007769e+00  -9.992231e+00   4.037370e+00  -9.962630e+00
9.1	   3.877781e+00  -1.012222e+01   3.952359e+00  -1.004764e+01   4.004546e+00  -9.995454e+00   3.986197e+00  -1.001380e+01   4.043119e+00  -9.956881e+00
9.2	   3.935272e+00  -1.006473e+01   3.889565e+00  -1.011043e+01   4.057412e+00  -9.942588e+00   3.964246e+00  -1.003575e+01   4.048001e+00  -9.951999e+00
9.3	   3.998655e+00  -1.000134e+01   3.847259e+00  -1.015274e+01   4.112775e+00  -9.887225e+00   3.943093e+00  -1.005691e+01   4.051681e+00  -9.948319e+00
9.4	   4.061531e+00  -9.938469e+00   3.796499e+00  -1.020350e+01   4.164871e+00  -9.835129e+00   3.923890e+00  -1.007611e+01   4.053834e+00  -9.946166e+00
9.5	   4.124762e+00  -9.875238e+00   3.801063e+00  -1.019894e+01   4.210209e+00  -9.789791e+00   3.907715e+00  -1.009229e+01   4.054184e+00  -9.945816e+00
9.6	   4.184167e+00  -9.815833e+00   3.773826e+00  -1.022617e+01   4.237782e+00  -9.762218e+00   3.895554e+00  -1.010445e+01   4.052498e+00  -9.947502e+00
9.7	   4.230119e+00  -9.769881e+00   3.784068e+00  -1.021593e+01   4.259403e+00  -9.740597e+00   3.888260e+00  -1.011174e+01   4.048647e+00  -9.951353e+00
9.8	   4.259685e+00  -9.740315e+00   3.786816e+00  -1.021318e+01   4.243435e+00  -9.756565e+00   3.886429e+00  -1.011357e+01   4.042606e+00  -9.957394e+00
9.9	   4.275123e+00  -9.724877e+00   3.806397e+00  -1.019360e+01   4.212801e+00  -9.787199e+00   3.890634e+00  -1.010937e+01   4.034461e+00  -9.965539e+00
10	   4.281970e+00  -9.718030e+00   3.845775e+00  -1.015423e+01   4.176048e+00  -9.823952e+00   3.901185e+00  -1.009881e+01   4.024414e+00  -9.975586e+00
10.1	   4.258998e+00  -9.741002e+00   3.883480e+00  -1.011652e+01   4.129608e+00  -9.870392e+00   3.918145e+00  -1.008185e+01   4.012800e+00  -9.987200e+00
10.2	   4.214028e+00  -9.785972e+00   3.925098e+00  -1.007490e+01   4.098542e+00  -9.901458e+00   3.941390e+00  -1.005861e+01   4.000075e+00  -9.999925e+00
10.3	   4.151793e+00  -9.848207e+00   3.973010e+00  -1.002699e+01   4.014452e+00  -9.985548e+00   3.970481e+00  -1.002952e+01   3.986743e+00  -1.001326e+01
10.4	   4.085911e+00  -9.914089e+00   4.037782e+00  -9.962218e+00   3.959291e+00  -1.004071e+01   4.004630e+00  -9.995370e+00   3.973433e+00  -1.002657e+01
10.5	   4.020040e+00  -9.979960e+00   4.111149e+00  -9.888851e+00   3.899972e+00  -1.010003e+01   4.042626e+00  -9.957374e+00   3.960759e+00  -1.003924e+01
10.6	   3.967945e+00  -1.003206e+01   4.168175e+00  -9.831825e+00   3.856784e+00  -1.014322e+01   4.082705e+00  -9.917295e+00   3.949375e+00  -1.005062e+01
10.7	   3.913801e+00  -1.008620e+01   4.219612e+00  -9.780388e+00   3.828863e+00  -1.017114e+01   4.122571e+00  -9.877429e+00   3.939878e+00  -1.006012e+01
10.8	   3.871832e+00  -1.012817e+01   4.253468e+00  -9.746532e+00   3.794672e+00  -1.020533e+01   4.159247e+00  -9.840753e+00   3.932853e+00  -1.006715e+01
10.9	   3.828228e+00  -1.017177e+01   4.274789e+00  -9.725211e+00   3.775055e+00  -1.022495e+01   4.189245e+00  -9.810755e+00   3.928802e+00  -1.007120e+01
11	   3.808070e+00  -1.019193e+01   4.273440e+00  -9.726560e+00   3.773100e+00  -1.022690e+01   4.208749e+00  -9.791251e+00   3.928124e+00  -1.007188e+01
11.1	   3.771888e+00  -1.022811e+01   4.250413e+00  -9.749587e+00   3.779456e+00  -1.022054e+01   4.215344e+00  -9.784656e+00   3.931174e+00  -1.006883e+01
11.2	   3.761761e+00  -1.023824e+01   4.209774e+00  -9.790226e+00   3.794488e+00  -1.020551e+01   4.201363e+00  -9.798637e+00   3.938147e+00  -1.006185e+01
11.3	   3.776787e+00  -1.022321e+01   4.160866e+00  -9.839134e+00   3.820742e+00  -1.017926e+01   4.182923e+00  -9.817077e+00   3.949082e+00  -1.005092e+01
11.4	   3.796258e+00  -1.020374e+01   4.119759e+00  -9.880241e+00   3.860923e+00  -1.013908e+01   4.140179e+00  -9.859821e+00   3.963886e+00  -1.003611e+01
11.5	   3.825499e+00  -1.017450e+01   4.033259e+00  -9.966741e+00   3.910960e+00  -1.008904e+01   4.086572e+00  -9.913428e+00   3.982259e+00  -1.001774e+01
11.6	   3.845601e+00  -1.015440e+01   3.984249e+00  -1.001575e+01   3.968129e+00  -1.003187e+01   4.033535e+00  -9.966465e+00   4.003740e+00  -9.996260e+00
11.7	   3.894400e+00  -1.010560e+01   3.929208e+00  -1.007079e+01   4.035477e+00  -9.964523e+00   3.974429e+00  -1.002557e+01   4.027571e+00  -9.972429e+00
11.8	   3.941506e+00  -1.005849e+01   3.879861e+00  -1.012014e+01   4.121444e+00  -9.878556e+00   3.922356e+00  -1.007764e+01   4.052776e+00  -9.947224e+00
11.9	   4.005719e+00  -9.994281e+00   3.845440e+00  -1.015456e+01   4.162065e+00  -9.837935e+00   3.874723e+00  -1.012528e+01   4.078136e+00  -9.921864e+00
12	   4.071615e+00  -9.928385e+00   3.802098e+00  -1.019790e+01   4.231873e+00  -9.768127e+00   3.837712e+00  -1.016229e+01   4.102251e+00  -9.897749e+00
12.1	   4.134751e+00  -9.865249e+00   3.788541e+00  -1.021146e+01   4.253663e+00  -9.746337e+00   3.817758e+00  -1.018224e+01   4.123435e+00  -9.876565e+00
12.2	   4.191702e+00  -9.808298e+00   3.786539e+00  -1.021346e+01   4.280405e+00  -9.719595e+00   3.790863e+00  -1.020914e+01   4.139739e+00  -9.860261e+00
12.3	   4.231633e+00  -9.768367e+00   3.781276e+00  -1.021872e+01   4.283731e+00  -9.716269e+00   3.801655e+00  -1.019834e+01   4.149622e+00  -9.850378e+00
12.4	   4.267164e+00  -9.732836e+00   3.785086e+00  -1.021491e+01   4.250997e+00  -9.749003e+00   3.780132e+00  -1.021987e+01   4.151446e+00  -9.848554e+00
12.5	   4.288826e+00  -9.711174e+00   3.810793e+00  -1.018921e+01   4.229907e+00  -9.770093e+00   3.799041e+00  -1.020096e+01   4.144077e+00  -9.855923e+00
12.6	   4.272088e+00  -9.727912e+00   3.849298e+00  -1.015070e+01   4.166971e+00  -9.833029e+00   3.821579e+00  -1.017842e+01   4.127474e+00  -9.872526e+00
12.7	   4.231063e+00  -9.768937e+00   3.880384e+00  -1.011962e+01   4.095970e+00  -9.904030e+00   3.870479e+00  -1.012952e+01   4.102555e+00  -9.897445e+00
12.8	   4.185829e+00  -9.814171e+00   3.927495e+00  -1.007250e+01   4.042095e+00  -9.957905e+00   3.913038e+00  -1.008696e+01   4.070794e+00  -9.929206e+00
12.9	   4.154982e+00  -9.845018e+00   3.985297e+00  -1.001470e+01   3.974874e+00  -1.002513e+01   3.968377e+00  -1.003162e+01   4.033624e+00  -9.966376e+00
13	   4.063770e+00  -9.936230e+00   4.046517e+00  -9.953483e+00   3.922710e+00  -1.007729e+01   4.023381e+00  -9.976619e+00   3.994227e+00  -1.000577e+01
13.1	   4.027818e+00  -9.972182e+00   4.107565e+00  -9.892435e+00   3.875195e+00  -1.012480e+01   4.087177e+00  -9.912823e+00   3.954933e+00  -1.004507e+01
13.2	   3.969259e+00  -1.003074e+01   4.168726e+00  -9.831274e+00   3.836507e+00  -1.016349e+01   4.146590e+00  -9.853410e+00   3.918096e+00  -1.008190e+01
13.3	   3.904968e+00  -1.009503e+01   4.215822e+00  -9.784178e+00   3.807645e+00  -1.019235e+01   4.202571e+00  -9.797429e+00   3.886078e+00  -1.011392e+01
13.4	   3.854471e+00  -1.014553e+01   4.242441e+00  -9.757559e+00   3.786935e+00  -1.021306e+01   4.248161e+00  -9.751839e+00   3.857135e+00  -1.014287e+01
13.5	   3.827756e+00  -1.017224e+01   4.275963e+00  -9.724037e+00   3.777829e+00  -1.022217e+01   4.281777e+00  -9.718223e+00   3.841175e+00  -1.015883e+01
13.6	   3.800987e+00  -1.019901e+01   4.282139e+00  -9.717861e+00   3.780566e+00  -1.021943e+01   4.281647e+00  -9.718353e+00   3.828118e+00  -1.017188e+01
13.7	   3.760941e+00  -1.023906e+01   4.263337e+00  -9.736663e+00   3.792884e+00  -1.020712e+01   4.268146e+00  -9.731854e+00   3.835818e+00  -1.016418e+01
13.8	   3.769267e+00  -1.023073e+01   4.220108e+00  -9.779892e+00   3.815476e+00  -1.018452e+01   4.241672e+00  -9.758328e+00   3.821496e+00  -1.017850e+01
13.9	   3.784988e+00  -1.021501e+01   4.174619e+00  -9.825381e+00   3.848125e+00  -1.015188e+01   4.182673e+00  -9.817327e+00   3.844877e+00  -1.015512e+01
14	   3.791379e+00  -1.020862e+01   4.111866e+00  -9.888134e+00   3.890151e+00  -1.010985e+01   4.095647e+00  -9.904353e+00   3.873640e+00  -1.012636e+01
14.1	   3.806046e+00  -1.019395e+01   4.037077e+00  -9.962923e+00   3.939675e+00  -1.006033e+01   4.047750e+00  -9.952250e+00   3.909309e+00  -1.009069e+01
14.2	   3.869300e+00  -1.013070e+01   3.965188e+00  -1.003481e+01   3.994361e+00  -1.000564e+01   3.983983e+00  -1.001602e+01   3.955242e+00  -1.004476e+01
14.3	   3.898614e+00  -1.010139e+01   3.913809e+00  -1.008619e+01   4.052151e+00  -9.947849e+00   3.925691e+00  -1.007431e+01   4.001565e+00  -9.998435e+00
14.4	   3.947957e+00  -1.005204e+01   3.877602e+00  -1.012240e+01   4.113971e+00  -9.886029e+00   3.868947e+00  -1.013105e+01   4.057612e+00  -9.942388e+00
14.5	   4.013252e+00  -9.986748e+00   3.842163e+00  -1.015784e+01   4.171067e+00  -9.828933e+00   3.828446e+00  -1.017155e+01   4.112622e+00  -9.887378e+00
14.6	   4.092617e+00  -9.907383e+00   3.797977e+00  -1.020202e+01   4.210973e+00  -9.789027e+00   3.791051e+00  -1.020895e+01   4.169649e+00  -9.830351e+00
14.7	   4.134706e+00  -9.865294e+00   3.789762e+00  -1.021024e+01   4.257105e+00  -9.742895e+00   3.766445e+00  -1.023356e+01   4.219181e+00  -9.780819e+00
14.8	   4.193077e+00  -9.806923e+00   3.781712e+00  -1.021829e+01   4.264164e+00  -9.735836e+00   3.755640e+00  -1.024436e+01   4.255456e+00  -9.744544e+00
14.9	   4.234055e+00  -9.765945e+00   3.770149e+00  -1.022985e+01   4.270448e+00  -9.729552e+00   3.771957e+00  -1.022804e+01   4.264224e+00  -9.735776e+00
15	   4.257238e+00  -9.742762e+00   3.800636e+00  -1.019936e+01   4.255776e+00  -9.744224e+00   3.788327e+00  -1.021167e+01   4.270767e+00  -9.729233e+00
15.1	   4.276668e+00  -9.723332e+00   3.799299e+00  -1.020070e+01   4.216579e+00  -9.783421e+00   3.808370e+00  -1.019163e+01   4.232350e+00  -9.767650e+00
15.2	   4.276703e+00  -9.723297e+00   3.857727e+00  -1.014227e+01   4.140862e+00  -9.859138e+00   3.842736e+00  -1.015726e+01   4.205216e+00  -9.794784e+00
15.3	   4.248948e+00  -9.751052e+00   3.895016e+00  -1.010498e+01   4.102138e+00  -9.897862e+00   3.887591e+00  -1.011241e+01   4.139690e+00  -9.860310e+00
15.4	   4.185937e+00  -9.814063e+00   3.932980e+00  -1.006702e+01   4.023932e+00  -9.976068e+00   3.944978e+00  -1.005502e+01   4.054544e+00  -9.945456e+00
15.5	   4.116320e+00  -9.883680e+00   3.992579e+00  -1.000742e+01   3.968599e+00  -1.003140e+01   4.009733e+00  -9.990267e+00   4.000697e+00  -9.999303e+00
15.6	   4.071589e+00  -9.928411e+00   4.063862e+00  -9.936138e+00   3.916466e+00  -1.008353e+01   4.079971e+00  -9.920029e+00   3.934216e+00  -1.006578e+01
15.7	   4.024230e+00  -9.975770e+00   4.100115e+00  -9.899885e+00   3.869853e+00  -1.013015e+01   4.142873e+00  -9.857127e+00   3.875337e+00  -1.012466e+01
15.8	   3.960535e+00  -1.003946e+01   4.182162e+00  -9.817838e+00   3.832288e+00  -1.016771e+01   4.196261e+00  -9.803739e+00   3.832138e+00  -1.016786e+01
15.9	   3.893252e+00  -1.010675e+01   4.236894e+00  -9.763106e+00   3.804576e+00  -1.019542e+01   4.226019e+00  -9.773981e+00   3.805409e+00  -1.019459e+01
16	   3.846556e+00  -1.015344e+01   4.272283e+00  -9.727717e+00   3.787752e+00  -1.021225e+01   4.253358e+00  -9.746642e+00   3.785000e+00  -1.021500e+01
16.1	   3.820205e+00  -1.017980e+01   4.285196e+00  -9.714804e+00   3.775886e+00  -1.022411e+01   4.266805e+00  -9.733195e+00   3.767973e+00  -1.023203e+01
16.2	   3.800627e+00  -1.019937e+01   4.273532e+00  -9.726468e+00   3.778238e+00  -1.022176e+01   4.261724e+00  -9.738276e+00   3.772952e+00  -1.022705e+01
16.3	   3.755570e+00  -1.024443e+01   4.245095e+00  -9.754905e+00   3.791111e+00  -1.020889e+01   4.237981e+00  -9.762019e+00   3.778196e+00  -1.022180e+01
16.4	   3.770855e+00  -1.022914e+01   4.213835e+00  -9.786165e+00   3.825627e+00  -1.017437e+01   4.204117e+00  -9.795883e+00   3.804719e+00  -1.019528e+01
16.5	   3.787319e+00  -1.021268e+01   4.184936e+00  -9.815064e+00   3.849930e+00  -1.015007e+01   4.152663e+00  -9.847337e+00   3.835335e+00  -1.016466e+01
16.6	   3.785100e+00  -1.021490e+01   4.086165e+00  -9.913835e+00   3.899579e+00  -1.010042e+01   4.078675e+00  -9.921325e+00   3.880155e+00  -1.011984e+01
16.7	   3.825170e+00  -1.017483e+01   4.064986e+00  -9.935014e+00   3.942572e+00  -1.005743e+01   4.019658e+00  -9.980342e+00   3.934694e+00  -1.006531e+01
16.8	   3.859109e+00  -1.014089e+01   3.991297e+00  -1.000870e+01   3.997593e+00  -1.000241e+01   3.964418e+00  -1.003558e+01   3.993621e+00  -1.000638e+01
16.9	   3.928590e+00  -1.007141e+01   3.935594e+00  -1.006441e+01   4.057449e+00  -9.942551e+00   3.912085e+00  -1.008792e+01   4.059745e+00  -9.940255e+00
17	   3.979444e+00  -1.002056e+01   3.888175e+00  -1.011183e+01   4.112304e+00  -9.887696e+00   3.866695e+00  -1.013331e+01   4.127014e+00  -9.872986e+00
17.1	   4.044026e+00  -9.955974e+00   3.818533e+00  -1.018147e+01   4.168734e+00  -9.831266e+00   3.830822e+00  -1.016918e+01   4.187222e+00  -9.812778e+00
17.2	   4.087071e+00  -9.912929e+00   3.820008e+00  -1.017999e+01   4.221737e+00  -9.778263e+00   3.802044e+00  -1.019796e+01   4.244124e+00  -9.755876e+00
17.3	   4.173084e+00  -9.826916e+00   3.764512e+00  -1.023549e+01   4.264042e+00  -9.735958e+00   3.783022e+00  -1.021698e+01   4.280267e+00  -9.719733e+00
17.4	   4.216697e+00  -9.783303e+00   3.792366e+00  -1.020763e+01   4.268379e+00  -9.731621e+00   3.784787e+00  -1.021521e+01   4.289413e+00  -9.710587e+00
17.5	   4.254518e+00  -9.745482e+00   3.767509e+00  -1.023249e+01   4.258978e+00  -9.741022e+00   3.785769e+00  -1.021423e+01   4.271913e+00  -9.728087e+00
17.6	   4.286390e+00  -9.713610e+00   3.794431e+00  -1.020557e+01   4.244937e+00  -9.755063e+00   3.790181e+00  -1.020982e+01   4.261199e+00  -9.738801e+00
17.7	   4.297948e+00  -9.702052e+00   3.809089e+00  -1.019091e+01   4.207515e+00  -9.792485e+00   3.830484e+00  -1.016952e+01   4.188444e+00  -9.811556e+00
17.8	   4.285506e+00  -9.714494e+00   3.856035e+00  -1.014396e+01   4.139484e+00  -9.860516e+00   3.846687e+00  -1.015331e+01   4.162346e+00  -9.837654e+00
17.9	   4.244267e+00  -9.755733e+00   3.868658e+00  -1.013134e+01   4.105572e+00  -9.894428e+00   3.903467e+00  -1.009653e+01   4.070129e+00  -9.929871e+00
18	   4.162196e+00  -9.837804e+00   3.926661e+00  -1.007334e+01   4.019121e+00  -9.980879e+00   3.947860e+00  -1.005214e+01   3.996378e+00  -1.000362e+01
18.1	   4.141958e+00  -9.858042e+00   3.983783e+00  -1.001622e+01   3.965285e+00  -1.003472e+01   4.003403e+00  -9.996597e+00   3.962688e+00  -1.003731e+01
18.2	   4.043777e+00  -9.956223e+00   4.044422e+00  -9.955578e+00   3.913985e+00  -1.008601e+01   4.063578e+00  -9.936422e+00   3.905338e+00  -1.009466e+01
18.3	   3.980042e+00  -1.001996e+01   4.131572e+00  -9.868428e+00   3.883614e+00  -1.011639e+01   4.123292e+00  -9.876708e+00   3.852356e+00  -1.014764e+01
18.4	   3.928733e+00  -1.007127e+01   4.167875e+00  -9.832125e+00   3.830712e+00  -1.016929e+01   4.177734e+00  -9.822266e+00   3.812032e+00  -1.018797e+01
18.5	   3.898604e+00  -1.010140e+01   4.197729e+00  -9.802271e+00   3.820782e+00  -1.017922e+01   4.230386e+00  -9.769614e+00   3.780120e+00  -1.021988e+01
18.6	   3.831650e+00  -1.016835e+01   4.232587e+00  -9.767413e+00   3.772718e+00  -1.022728e+01   4.269707e+00  -9.730293e+00   3.764025e+00  -1.023597e+01
18.7	   3.822229e+00  -1.017777e+01   4.250870e+00  -9.749130e+00   3.787385e+00  -1.021262e+01   4.267757e+00  -9.732243e+00   3.762148e+00  -1.023785e+01
18.8	   3.761575e+00  -1.023842e+01   4.250862e+00  -9.749138e+00   3.788638e+00  -1.021136e+01   4.262413e+00  -9.737587e+00   3.770950e+00  -1.022905e+01
18.9	   3.782624e+00  -1.021738e+01   4.233251e+00  -9.766749e+00   3.783568e+00  -1.021643e+01   4.250908e+00  -9.749092e+00   3.796428e+00  -1.020357e+01
19	   3.780201e+00  -1.021980e+01   4.212646e+00  -9.787354e+00   3.830772e+00  -1.016923e+01   4.212113e+00  -9.787887e+00   3.831953e+00  -1.016805e+01
19.1	   3.761282e+00  -1.023872e+01   4.191713e+00  -9.808287e+00   3.833182e+00  -1.016682e+01   4.145298e+00  -9.854702e+00   3.875028e+00  -1.012497e+01
19.2	   3.810953e+00  -1.018905e+01   4.083388e+00  -9.916612e+00   3.898933e+00  -1.010107e+01   4.076539e+00  -9.923461e+00   3.918555e+00  -1.008144e+01
19.3	   3.817583e+00  -1.018242e+01   4.063191e+00  -9.936809e+00   3.951141e+00  -1.004886e+01   4.020305e+00  -9.979695e+00   3.966125e+00  -1.003388e+01